! TOUCHSTONE file generated by CST MICROWAVE STUDIO
! Date and time: Tue Oct 21 16:07:06 2025
! Project name: ARRAY.cst
! Parameters = {L_parche_inf=15.28; L_parche_sup=14.98; Long_linea=17.19; W_linea=1.5; W_parche_inf=21.62; W_parche_sup=21.62; alpha=-21.9632; distancia_entre_parches=44.6809; h_0=4.335; h_cobre=0.035; h_sus=1.58; lambda_0=63.8298}
! Header version: 2024
! Port assignment regex: !\s*Touchstone port\s*([0-9]+)\s*=\s*(CST MWS port|CST DES external port|CST DES block port)\s*(.+)\s* \(\"(.*)\"\)(\s*mode\s*([0-9]+))?.*
! Touchstone port assignment:
! Touchstone port 1 = CST MWS port 1 ("")
! Touchstone port 2 = CST MWS port 2 ("")
! Touchstone port 3 = CST MWS port 3 ("")
! Touchstone port 4 = CST MWS port 4 ("")
# GHz S MA R 40
3.2                    0.9507415       -40.03755      0.005248499        153.3636       0.00350145       -32.53583       0.00225633        150.6147
                     0.004680773        159.3702        0.9511934       -39.99619      0.006176245        148.4234      0.002868929       -23.75072
                     0.002866014       -23.75789      0.006175124        148.4196        0.9511984       -39.99426      0.004682169        159.3818
                     0.002255981        150.5948      0.003503579       -32.55602       0.00524644         153.352        0.9507408       -40.03745
3.203                  0.9505205       -40.23908      0.005289888        152.0631      0.003493257       -34.39211       0.00225003        148.5975
                     0.004734074        158.0689        0.9509942       -40.19875      0.006205041        147.0476       0.00286793         -25.592
                      0.00286503       -25.59937      0.006203917        147.0436        0.9509989       -40.19682      0.004735467        158.0806
                     0.002249689        148.5774      0.003495377       -34.41261      0.005287814        152.0516        0.9505197       -40.23898
3.206                  0.9502974       -40.44122      0.005330578        150.7713      0.003484855       -36.24309      0.002243635        146.5838
                     0.004786731        156.7757         0.950792       -40.40197      0.006232976        145.6812       0.00286671       -27.42657
                     0.002863824       -27.43414      0.006231849        145.6772        0.9507967       -40.40001      0.004788121        156.7875
                     0.002243301        146.5634      0.003486967       -36.26391      0.005328491        150.7598        0.9502967       -40.44111
3.209                  0.9500722       -40.64397       0.00537056        149.4879      0.003476237       -38.08882      0.002237142        144.5735
                     0.004838735        155.4906        0.9505872       -40.60583      0.006260043        144.3243       0.00286526       -29.25443
                     0.002862391       -29.26221      0.006258913        144.3202        0.9505916       -40.60387      0.004840123        155.5025
                     0.002236817        144.5528      0.003478339       -38.10996       0.00536846        149.4766        0.9500717       -40.64386
3.212                  0.9498448       -40.84733      0.005409829        148.2129      0.003467395       -39.92937      0.002230547        142.5666
                     0.004890078        154.2132        0.9503793       -40.81035      0.006286232        142.9768      0.002863575       -31.07569
                      0.00286072       -31.08368      0.006285099        142.9726        0.9503836       -40.80836      0.004891464        154.2253
                     0.002230229        142.5456      0.003469489       -39.95083      0.005407717        148.2017        0.9498444       -40.84724
3.215                  0.9496153       -41.05132      0.005448378        146.9463      0.003458321       -41.76477      0.002223845         140.563
                     0.004940752        152.9437        0.9501684       -41.01553      0.006311537        141.6385      0.002861646        -32.8904
                     0.002858807       -32.89858      0.006310401        141.6343        0.9501726       -41.01353      0.004942136        152.9558
                     0.002223535        140.5416      0.003460407       -41.78656      0.005446251        146.9351        0.9496149       -41.05122
3.218                  0.9493836       -41.25594      0.005486199        145.6878      0.003449009       -43.59509      0.002217032        138.5626
                     0.004990748        151.6817        0.9499545       -41.22137      0.006335948        140.3094      0.002859467       -34.69862
                     0.002856644         -34.707       0.00633481        140.3051        0.9499586       -41.21936      0.004992131        151.6939
                     0.002216731         138.541      0.003451085       -43.61721      0.005484058        145.6767        0.9493834       -41.25583
3.221                  0.9491496       -41.46119      0.005523284        144.4374      0.003439449       -45.42036      0.002210105        136.5655
                     0.005040058        150.4272        0.9497376       -41.42787      0.006359458        138.9894      0.002857031       -36.50039
                     0.002854223       -36.50896      0.006358317        138.9851        0.9497415       -41.42584      0.005041441        150.4395
                     0.002209812        136.5435      0.003441518        -45.4428      0.005521131        144.4264        0.9491494       -41.46108
3.224                  0.9489134       -41.66706       0.00555963        143.1951      0.003429637       -47.24062      0.002203059        134.5715
                     0.005088677        149.1801        0.9495174       -41.63505       0.00638206        137.6784       0.00285433       -38.29579
                     0.002851539       -38.30454      0.006380917        137.6741        0.9495212         -41.633      0.005090058        149.1925
                     0.002202773        134.5492      0.003431696       -47.26342      0.005557464        143.1841        0.9489133       -41.66697
3.227                  0.9486749       -41.87359       0.00559523        141.9607      0.003419562       -49.05596      0.002195889        132.5805
                     0.005136595        147.9403        0.9492941       -41.84289      0.006403748        136.3765      0.002851359       -40.08485
                     0.002848583       -40.09378      0.006402601         136.372        0.9492978       -41.84082      0.005137976        147.9528
                     0.002195612         132.558      0.003421614       -49.07909       0.00559305        141.9498        0.9486747       -41.87349
3.23                   0.9484339       -42.08076      0.005630077        140.7343       0.00340922       -50.86638      0.002188592        130.5927
                     0.005183807        146.7078        0.9490675        -42.0514      0.006424515        135.0834       0.00284811       -41.86765
                     0.002845351       -41.87676      0.006423364        135.0789        0.9490711       -42.04932      0.005185188        146.7204
                     0.002188324        130.5698      0.003411263       -50.88986      0.005627886        140.7234        0.9484339       -42.08066
3.233                  0.9481905       -42.28858      0.005664167        139.5157      0.003398602       -52.67195      0.002181165        128.6078
                     0.005230305        145.4823        0.9488376       -42.26059      0.006444354        133.7992      0.002844577        -43.6442
                     0.002841833       -43.65352      0.006443201        133.7947         0.948841       -42.25849      0.005231686        145.4951
                     0.002180904        128.5846      0.003400636        -52.6958      0.005661964        139.5048        0.9481906       -42.28848
3.236                  0.9479447       -42.49706      0.005697496        138.3048      0.003387702       -54.47273      0.002173601        126.6258
                     0.005276083         144.264        0.9486042       -42.47046      0.006463259        132.5239      0.002840753        -45.4146
                     0.002838026       -45.42408      0.006462103        132.5193        0.9486075       -42.46834      0.005277465        144.2768
                      0.00217335        126.6022      0.003389727       -54.49694       0.00569528        138.2941        0.9479447       -42.49696
3.239                  0.9476962        -42.7062      0.005730058        137.1018      0.003376511       -56.26877      0.002165899        124.6466
                     0.005321136        143.0528        0.9483675         -42.681      0.006481226        131.2574       0.00283663       -47.17886
                      0.00283392       -47.18853      0.006480066        131.2528        0.9483707       -42.67887      0.005322517        143.0657
                     0.002165656        124.6228      0.003378528       -56.29333       0.00572783        137.0911        0.9476965        -42.7061
3.242                  0.9474453         -42.916      0.005761848        135.9065      0.003365023       -58.06009      0.002158053        122.6703
                     0.005365455        141.8485        0.9481273       -42.89224      0.006498249        129.9998      0.002832203       -48.93703
                      0.00282951       -48.94688      0.006497086        129.9951        0.9481303       -42.89007      0.005366838        141.8614
                     0.002157819        122.6461      0.003367033       -58.08498      0.005759609        135.8958        0.9474456        -42.9159
3.245                  0.9471918       -43.12648      0.005792865        134.7189      0.003353233       -59.84674       0.00215006        120.6967
                     0.005409038        140.6512        0.9478835       -43.10416      0.006514325        128.7509      0.002827466       -50.68917
                      0.00282479       -50.69918      0.006513159        128.7461        0.9478865       -43.10197      0.005410421        140.6642
                     0.002149835        120.6722      0.003355234       -59.87202      0.005790613        134.7083        0.9471921       -43.12637
3.248                  0.9469357       -43.33762      0.005823101         133.539      0.003341131       -61.62879      0.002141915        118.7257
                     0.005451875        139.4608        0.9476361       -43.31676      0.006529447        127.5108      0.002822412       -52.43529
                     0.002819753       -52.44548      0.006528278         127.506         0.947639       -43.31455      0.005453261        139.4739
                     0.002141699        118.7009      0.003343124       -61.65445      0.005820838        133.5284         0.946936       -43.33752
3.251                  0.9466767       -43.54944      0.005852556        132.3667      0.003328712       -63.40629      0.002133616        116.7573
                     0.005493966        138.2773        0.9473852       -43.53005      0.006543615        126.2795      0.002817034       -54.17546
                     0.002814392       -54.18581      0.006542441        126.2746         0.947388       -43.52782      0.005495353        138.2904
                     0.002133409        116.7323      0.003330697        -63.4323      0.005850283        132.3562        0.9466773       -43.54934
3.254                  0.9464152       -43.76195      0.005881226        131.2021      0.003315969       -65.17925      0.002125157        114.7915
                     0.005535304        137.1006        0.9471305       -43.74405      0.006556822         125.057      0.002811326       -55.90967
                     0.002808701       -55.92022      0.006555644        125.0521        0.9471332       -43.74178      0.005536692        137.1139
                     0.002124959        114.7661      0.003317946       -65.20561      0.005878942        131.1917        0.9464157       -43.76185
3.257                  0.9461507       -43.97516       0.00590911        130.0453      0.003302895       -66.94773      0.002116536        112.8282
                     0.005575884        135.9308        0.9468721       -43.95873      0.006569065        123.8433      0.002805281       -57.63801
                     0.002802674       -57.64872      0.006567885        123.8383        0.9468747       -43.95645      0.005577275        135.9441
                     0.002116347        112.8025      0.003304864       -66.97451      0.005906815        130.0349        0.9461513       -43.97506
3.26                   0.9458836       -44.18903      0.005936202        128.8961      0.003289483       -68.71177      0.002107746        110.8673
                     0.005615702        134.7679        0.9466099       -44.17411      0.006580345        122.6385      0.002798895       -59.36046
                     0.002796305       -59.37137      0.006579161        122.6335        0.9466125       -44.17181      0.005617096        134.7813
                     0.002107567        110.8412      0.003291444        -68.7389      0.005933897        128.8858        0.9458843       -44.18895
3.263                  0.9456134       -44.40362      0.005962503        127.7545      0.003275728       -70.47141      0.002098787        108.9086
                     0.005654754        133.6118        0.9463439        -44.3902      0.006590657        121.4425      0.002792159       -61.07708
                     0.002789587       -61.08813       0.00658947        121.4375        0.9463464       -44.38788      0.005656152        133.6253
                     0.002098618        108.8823       0.00327768       -70.49895      0.005960188        127.7443        0.9456142       -44.40355
3.266                  0.9453404       -44.61893      0.005988012        126.6207      0.003261621        -72.2267      0.002089653        106.9523
                     0.005693038        132.4626        0.9460741       -44.60698           0.0066        120.2555      0.002785069       -62.78789
                     0.002782515       -62.79911      0.006598809        120.2504        0.9460765       -44.60463      0.005694439        132.4761
                     0.002089493        106.9256      0.003263566       -72.25463      0.005985686        126.6106        0.9453413       -44.61883
3.269                  0.9450644       -44.83493      0.006012727        125.4947      0.003247157       -73.97766      0.002080341        104.9981
                     0.005730551        131.3202        0.9458002       -44.82448      0.006608372        119.0774      0.002777618       -64.49288
                     0.002775082       -64.50426      0.006607177        119.0723        0.9458027       -44.82209      0.005731955        131.3338
                     0.002080191        104.9711      0.003249094       -74.00599      0.006010392        125.4845        0.9450653       -44.83485
3.272                  0.9447854       -45.05164      0.006036648        124.3764      0.003232331       -75.72437      0.002070846         103.046
                     0.005767287        130.1847        0.9455225       -45.04269      0.006615776        117.9084        0.0027698       -66.19209
                     0.002767282       -66.20363      0.006614577        117.9032        0.9455249       -45.04029      0.005768696        130.1983
                     0.002070706        103.0186      0.003234258       -75.75312      0.006034302        124.3663        0.9447863       -45.05154
3.275                  0.9445034       -45.26906      0.006059774        123.2659      0.003217133       -77.46681      0.002061166         101.096
                     0.005803247        129.0561        0.9452408       -45.26161      0.006622206        116.7484      0.002761609       -67.88551
                     0.002759109       -67.89725      0.006621003        116.7432        0.9452431       -45.25916       0.00580466        129.0697
                     0.002061035        101.0683      0.003219053         -77.496      0.006057418        123.2559        0.9445043       -45.26898
3.278                  0.9442182       -45.48722      0.006082104        122.1632      0.003201559       -79.20507      0.002051296        99.14791
                     0.005838427        127.9344         0.944955       -45.48122      0.006627666        115.5976      0.002753039       -69.57318
                     0.002750558       -69.58508       0.00662646        115.5923        0.9449572       -45.47877      0.005839846        127.9481
                     0.002051175        99.11986       0.00320347       -79.23465       0.00607974        122.1533        0.9442191       -45.48712
3.281                  0.9439298        -45.7061      0.006103642        121.0685      0.003185603       -80.93916      0.002041232         97.2017
                     0.005872828        126.8197        0.9446651       -45.70159      0.006632158        114.4561      0.002744085       -71.25511
                     0.002741622       -71.26715      0.006630947        114.4507        0.9446674       -45.69911      0.005874252        126.8334
                     0.002041122        97.17333      0.003187506       -80.96917       0.00610127        121.0586        0.9439308       -45.70602
3.284                  0.9436381       -45.92571      0.006124388        119.9817      0.003169257       -82.66909      0.002030972        95.25732
                     0.005906445        125.7119        0.9443711       -45.92267      0.006635681        113.3238      0.002734739       -72.93125
                     0.002732296       -72.94349      0.006634465        113.3185        0.9443734       -45.92014      0.005907875        125.7257
                     0.002030871        95.22859      0.003171152       -82.69956      0.006122006        119.9719        0.9436394       -45.92563
3.287                  0.9433434       -46.14606      0.006144342        118.9029      0.003152516       -84.39495       0.00202051        93.31463
                      0.00593928        124.6112         0.944073       -46.14445      0.006638237         112.201      0.002724997       -74.60167
                     0.002722573       -74.61407      0.006637017        112.1956        0.9440753       -46.14192      0.005940716         124.625
                     0.002020419        93.28556      0.003154403       -84.42582      0.006141952        118.8931        0.9433446       -46.14596
3.29                   0.9430453       -46.36714      0.006163507        117.8322      0.003135374       -86.11673      0.002009845        91.37358
                     0.005971332        123.5175        0.9437707       -46.36696      0.006639829        111.0878      0.002714854       -76.26631
                     0.002712448       -76.27887      0.006638604        111.0823        0.9437729        -46.3644      0.005972775        123.5314
                     0.002009764        91.34417      0.003137252       -86.14806      0.006161109        117.8225        0.9430465       -46.36709
3.293                  0.9427438       -46.58898      0.006181887        116.7697      0.003117825       -87.83446       0.00199897        89.43407
                       0.0060026        122.4309        0.9434642       -46.59021      0.006640461        109.9841      0.002704302       -77.92518
                     0.002701916       -77.93791      0.006639232        109.9786        0.9434664       -46.58762       0.00600405        122.4449
                       0.0019989        89.40431      0.003119694       -87.86623      0.006179481          116.76        0.9427452       -46.58892
3.296                  0.9424389       -46.81156      0.006199485        115.7153      0.003099862       -89.54816      0.001987885        87.49602
                     0.006033086        121.3516        0.9431534       -46.81418      0.006640136        108.8902      0.002693337       -79.57826
                      0.00269097       -79.59115      0.006638902        108.8846        0.9431557       -46.81157      0.006034544        121.3655
                     0.001987825         87.4659      0.003101722       -89.58042      0.006197071        115.7057        0.9424404        -46.8115
3.299                  0.9421307       -47.03491      0.006216303        114.6692      0.003081479        -91.2579      0.001976584        85.55933
                     0.006062792        120.2794        0.9428384       -47.03888      0.006638859        107.8062      0.002681953       -81.22549
                     0.002679606        -81.2386      0.006637621        107.8006        0.9428407       -47.03626      0.006064257        120.2934
                     0.001976535        85.52885      0.003083331        -91.2906      0.006213882        114.6597        0.9421321       -47.03485
3.302                   0.941819       -47.25901      0.006232349        113.6316      0.003062671       -92.96365      0.001965064        83.62392
                     0.006091718        119.2145        0.9425189       -47.26435      0.006636636        106.7322      0.002670145       -82.86694
                     0.002667816        -82.8802      0.006635392        106.7265        0.9425213       -47.26166       0.00609319        119.2286
                     0.001965026        83.59307      0.003064514       -92.99685      0.006229918        113.6221        0.9418204       -47.25896
3.305                  0.9415037       -47.48387      0.006247624        112.6024      0.003043431       -94.66549      0.001953321        81.68967
                     0.006119865        118.1571        0.9421952       -47.49053      0.006633473        105.6684      0.002657905       -84.50249
                     0.002655598       -84.51592      0.006632223        105.6626        0.9421976       -47.48783      0.006121345        118.1711
                     0.001953293        81.65846      0.003045265       -94.69916      0.006245187        112.5929        0.9415052        -47.4838
3.308                  0.9411848       -47.70951      0.006262136        111.5817      0.003023754        -96.3634      0.001941353        79.75651
                     0.006147237         117.107        0.9418671       -47.71747      0.006629374        104.6148      0.002645231       -86.13217
                     0.002642943       -86.14578      0.006628122        104.6091        0.9418695       -47.71473      0.006148726        117.1211
                     0.001941336        79.72493       0.00302558       -96.39756      0.006259691        111.5723        0.9411863       -47.70945
3.311                  0.9408623       -47.93592       0.00627589        110.5698      0.003003634       -98.05737      0.001929156        77.82431
                     0.006173837        116.0644        0.9415346       -47.94514      0.006624351        103.5718      0.002632116       -87.75586
                     0.002629849       -87.76966      0.006623092         103.566        0.9415371       -47.94239      0.006175336        116.0785
                      0.00192915        77.79236      0.003005451       -98.09205       0.00627344        110.5604        0.9408639       -47.93586
3.314                  0.9405361       -48.16312      0.006288894        109.5666      0.002983065       -99.74748      0.001916726          75.893
                     0.006199669        115.0294        0.9411977       -48.17355      0.006618408        102.5394      0.002618555       -89.37358
                     0.002616307       -89.38757      0.006617143        102.5335        0.9412002       -48.17075      0.006201177        115.0436
                      0.00191673        75.86065      0.002984872       -99.78268      0.006286436        109.5573        0.9405376       -48.16306
3.317                  0.9402062       -48.39109      0.006301156        108.5722      0.002962042       -101.4337      0.001904059        73.96243
                     0.006224737        114.0021        0.9408564       -48.40274       0.00661156        101.5178      0.002604543       -90.98522
                     0.002602316       -90.99938      0.006610289        101.5119        0.9408589       -48.39994      0.006226257        114.0163
                     0.001904075         73.9297       0.00296384       -101.4694      0.006298693         108.563        0.9402077       -48.39105
3.32                   0.9398725       -48.61985      0.006312683        107.5869      0.002940557       -103.1161      0.001891153        72.03251
                     0.006249047        112.9826        0.9405104       -48.63267      0.006603811        100.5073      0.002590074       -92.59076
                     0.002587867       -92.60511      0.006602535        100.5013        0.9405131       -48.62983      0.006250576        112.9968
                      0.00189118         71.9994      0.002942346       -103.1524      0.006310213        107.5778        0.9398741       -48.61981
3.323                  0.9395349       -48.84943      0.006323486        106.6107      0.002918607       -104.7946      0.001878004        70.10314
                     0.006272604        111.9709        0.9401602       -48.86338      0.006595176        99.50796      0.002575144        -94.1901
                     0.002572957       -94.20467      0.006593892        99.50197        0.9401628       -48.86047      0.006274144        111.9851
                     0.001878042        70.06962      0.002920387       -104.8314      0.006321009        106.6016        0.9395366       -48.84939
3.326                  0.9391936       -49.07979      0.006333574        105.6438      0.002896186       -106.4693      0.001864609        68.17416
                     0.006295413        110.9671        0.9398052       -49.09484      0.006585667        98.52006      0.002559747        -95.7832
                     0.002557581       -95.79795      0.006584379        98.51404         0.939808       -49.09193      0.006296965        110.9813
                     0.001864658        68.14024      0.002897956       -106.5067      0.006331091        105.6347        0.9391953       -49.07976
3.329                  0.9388483       -49.31095      0.006342955        104.6862      0.002873286       -108.1401      0.001850963        66.24547
                     0.006317482        109.9714        0.9394459       -49.32707      0.006575296        97.54381      0.002543878       -97.36991
                     0.002541732        -97.3849      0.006574001        97.53774        0.9394488       -49.32411      0.006319044        109.9856
                     0.001851024        66.21114      0.002875047        -108.178      0.006340466        104.6772        0.9388501       -49.31091
3.332                  0.9384991       -49.54294      0.006351645        103.7381      0.002849905       -109.8071      0.001837065        64.31695
                     0.006338818        108.9839        0.9390819       -49.56006      0.006564077        96.57943      0.002527533       -98.95022
                     0.002525408       -98.96537      0.006562776        96.57334        0.9390849       -49.55707      0.006340391         108.998
                     0.001837137         64.2822      0.002851656       -109.8456       0.00634915        103.7292        0.9385009        -49.5429
3.335                   0.938146       -49.77573      0.006359652        102.7997      0.002826035       -111.4703      0.001822911        62.38844
                     0.006359428        108.0046        0.9387133       -49.79381      0.006552027        95.62716      0.002510706        -100.524
                     0.002508603       -100.5393       0.00655072        95.62102        0.9387165       -49.79081      0.006361015        108.0187
                     0.001822994        62.35327      0.002827776       -111.5094      0.006357153        102.7908        0.9381478       -49.77569
3.338                  0.9377887       -50.00934      0.006366994        101.8711      0.002801672       -113.1295      0.001808498        60.45981
                     0.006379325        107.0336        0.9383402       -50.02836      0.006539164        94.68726      0.002493394        -102.091
                     0.002491312       -102.1066      0.006537849        94.68109        0.9383435       -50.02533      0.006380926        107.0478
                     0.001808592        60.42421      0.002803402       -113.1693       0.00636449        101.8622        0.9377905       -50.00933
3.341                  0.9374272       -50.24378      0.006373681        100.9524       0.00277681        -114.785      0.001793821        58.53092
                     0.006398516        106.0712        0.9379624       -50.26369      0.006525503        93.75995      0.002475591       -103.6513
                      0.00247353       -103.6671      0.006524181        93.75376        0.9379658       -50.26063       0.00640013        106.0854
                     0.001793928        58.49487       0.00277853       -114.8253      0.006371172        100.9436        0.9374292       -50.24377
3.344                  0.9370619       -50.47907      0.006379731        100.0438      0.002751443       -116.4366      0.001778879        56.60161
                     0.006417013        105.1174        0.9375801       -50.49982      0.006511065        92.84555      0.002457293       -105.2046
                     0.002455254       -105.2206      0.006509736        92.83933        0.9375836       -50.49671      0.006418639        105.1315
                     0.001778997        56.56512      0.002753153       -116.4776      0.006377216         100.035        0.9370637       -50.47905