! TOUCHSTONE file generated by CST MICROWAVE STUDIO
! Date and time: Sat Oct  4 19:49:01 2025
! Project name: DiseþoBPF_alum.cst
! Parameters = {L=20; Lc1=19.0311; Lc2=21.4361; a=19.05; b=9.525; t=1.5; w1=11.7375; w2=8.46096; w3=7.78789}
! Header version: 2024
! Port assignment regex: !\s*Touchstone port\s*([0-9]+)\s*=\s*(CST MWS port|CST DES external port|CST DES block port)\s*(.+)\s* \(\"(.*)\"\)(\s*mode\s*([0-9]+))?.*
! Touchstone port assignment:
! Touchstone port 1 = CST MWS port 1 ("")
! Touchstone port 2 = CST MWS port 2 ("")
! S-Parameters are not renormalized. Unphysical impedance of 610.342 will be written to the file.
# GHz S MA R 610.342
8                    0.995628396      97.0256129     3.632424e-06      6.57296512   3.63236629e-06      6.57217159       0.99562832      97.0171474
8.004                0.995710704      95.7789697   3.73524661e-06      5.57198567   3.72453935e-06      5.36147915      0.995710434      95.7705669
8.008                0.995787509      94.5465174    3.8380345e-06      4.55412997    3.8181243e-06      4.16422924      0.995787077      94.5381689
8.012                0.995859186      93.3278942   3.94094709e-06      3.52219043   3.91314307e-06      2.97996127       0.99585862      93.3195922
8.016                0.995926085      92.1227482   4.04413352e-06      2.47861332   4.00961815e-06      1.80824114      0.995925412      92.1144854
8.02                 0.995988536      90.9307374    4.1477334e-06      1.42555113   4.10757256e-06     0.648659265      0.995987778      90.9225071
8.024                0.996046848      89.7515293   4.25187756e-06     0.364905065   4.20702989e-06    -0.499171381      0.996046027      89.7433251
8.028                0.996101313      88.5848007   4.35668875e-06    -0.701640206   4.30801427e-06      -1.6356169      0.996100448       88.576617
8.032                0.996152202      87.4302378   4.46228228e-06     -1.77258787   4.41055038e-06     -2.76102405       0.99615131      87.4220691
8.036                0.996199773      86.2875355   4.56876662e-06     -2.84660515   4.51466345e-06     -3.87572164      0.996198869      86.2793768
8.04                 0.996244266      85.1563974   4.67624394e-06     -3.92250339   4.62037925e-06     -4.98002182      0.996243362      85.1482442
8.044                0.996285904      84.0365358   4.78481065e-06     -4.99922119   4.72772411e-06     -6.07422128      0.996285013      84.0283838
8.048                  0.9963249      82.9276709   4.89455787e-06     -6.07581014   4.83672492e-06     -7.15860232      0.996324031      82.9195163
8.052                 0.99636145      81.8295314   5.00557185e-06      -7.1514226   4.94740912e-06     -8.23343382      0.996360612      81.8213704
8.056                0.996395739      80.7418533   5.11793443e-06     -8.22530111   5.05980474e-06     -9.29897219       0.99639494      80.7336828
8.06                 0.996427939      79.6643808   5.23172338e-06     -9.29676929   5.17394034e-06     -10.3554622      0.996427186      79.6561976
8.064                0.996458213       78.596865   5.34701275e-06     -10.3652239    5.2898451e-06     -11.4031376      0.996457511      78.5886664
8.068                0.996486711      77.5390643   5.46387324e-06     -11.4301276   5.40754876e-06     -12.4422221      0.996486065      77.5308478
8.072                0.996513575      76.4907444   5.58237248e-06     -12.4910032   5.52708166e-06     -13.4729298      0.996512988      76.4825076
8.076                0.996538936      75.4516774    5.7025753e-06     -13.5474278   5.64847475e-06      -14.495466       0.99653841      75.4434182
8.08                 0.996562916      74.4216422   5.82454402e-06     -14.5990278   5.77175958e-06     -15.5100273      0.996562455      74.4133586
8.084                0.996585631      73.4004239    5.9483387e-06     -15.6454748   5.89696832e-06     -16.5168027      0.996585236      73.3921142
8.088                0.996607187      72.3878139   6.07401733e-06     -16.6864816   6.02413378e-06     -17.5159738      0.996606859      72.3794766
8.092                0.996627683      71.3836098   6.20163611e-06     -17.7217983    6.1532894e-06     -18.5077149      0.996627423      71.3752434
8.096                0.996647213      70.3876148   6.33124958e-06     -18.7512094   6.28446927e-06     -19.4921942       0.99664702       70.379218
8.1                  0.996665862      69.3996377   6.46291085e-06     -19.7745306   6.41770816e-06     -20.4695733      0.996665736      69.3912093
8.104                 0.99668371      68.4194929   6.59667177e-06     -20.7916061   6.55304148e-06     -21.4400082       0.99668365       68.411032
8.108                0.996700832      67.4470003   6.73258308e-06     -21.8023064   6.69050536e-06     -22.4036493      0.996700837      67.4385059
8.112                0.996717296      66.4819846   6.87069459e-06     -22.8065255   6.83013661e-06     -23.3606417      0.996717364      66.4734559
8.116                0.996733166      65.5242757   7.01105527e-06     -23.8041794   6.97197276e-06     -24.3111257      0.996733296       65.515712
8.12                 0.996748501      64.5737083   7.15371346e-06     -24.7952037   7.11605207e-06     -25.2552368      0.996748691       64.565109
8.124                0.996763357      63.6301219   7.29871693e-06      -25.779552   7.26241353e-06     -26.1931061      0.996763605      63.6214864
8.128                0.996777783      62.6933603   7.44611302e-06     -26.7571946   7.41109689e-06     -27.1248605      0.996778086      62.6846882
8.132                0.996791826      61.7632719   7.59594877e-06     -27.7281163   7.56214266e-06     -28.0506228      0.996792182      61.7545627
8.136                0.996805529      60.8397093   7.74827101e-06     -28.6923156   7.71559215e-06      -28.970512      0.996805936      60.8309628
8.14                 0.996818932      59.9225293   7.90312645e-06     -29.6498032   7.87148747e-06     -29.8846436      0.996819387      59.9137451
8.144                0.996832071      59.0115926   8.06056179e-06     -30.6006008   8.02987152e-06     -30.7931294      0.996832571      59.0027706
8.148                0.996844979      58.1067639   8.22062379e-06     -31.5447399   8.19078807e-06     -31.6960782      0.996845521      58.0979038
8.152                0.996857686      57.2079115   8.38335937e-06     -32.4822612   8.35428171e-06     -32.5935955      0.996858269      57.1990133
8.156                0.996870221      56.3149076   8.54881568e-06     -33.4132132   8.52039792e-06     -33.4857836      0.996870841       56.305971
8.16                  0.99688261      55.4276276   8.71704018e-06     -34.3376515   8.68918305e-06     -34.3727422      0.996883263      55.4186528
8.164                0.996894874      54.5459506   8.88808071e-06     -35.2556381   8.86068437e-06     -35.2545682      0.996895558      54.5369374
8.168                0.996907035      53.6697588   9.06198553e-06     -36.1672407   9.03495005e-06     -36.1313557      0.996907748      53.6607074
8.172                0.996919112      52.7989379   9.23880345e-06     -37.0725318   9.21202923e-06     -37.0031964       0.99691985      52.7898482
8.176                0.996931122      51.9333764   9.41858383e-06     -37.9715883     9.391972e-06     -37.8701797      0.996931883      51.9242484
8.18                  0.99694308      51.0729659   9.60137663e-06     -38.8644908   9.57482942e-06     -38.7323924      0.996943861      51.0637998
8.184                   0.996955      50.2176011   9.78723255e-06     -39.7513232   9.76065358e-06     -39.5899192      0.996955798       50.208397
8.188                0.996966893      49.3671793     9.976203e-06      -40.632172   9.94949757e-06     -40.4428428      0.996967706      49.3579372
8.192                0.996978772      48.5216007   1.01683402e-05     -41.5071261   1.01414156e-05     -41.2912435      0.996979596      48.5123208
8.196                0.996990644       47.680768   1.03636971e-05     -42.3762763   1.03364627e-05     -42.1351999      0.996991478      47.6714504
8.2                  0.997002518      46.8445866   1.05623278e-05      -43.239715   1.05346954e-05     -42.9747886      0.997003359      46.8352315
8.204                0.997014401      46.0129644    1.0764287e-05     -44.0975357   1.07361711e-05     -43.8100844      0.997015247      46.0035719
8.208                0.997026299      45.1858117   1.09696307e-05     -44.9498329   1.09409482e-05     -44.6411601      0.997027147      45.1763819
8.212                0.997038217      44.3630411   1.11784157e-05     -45.7967016   1.11490866e-05     -45.4680871      0.997039065      44.3535742
8.216                0.997050159      43.5445674   1.13907001e-05     -46.6382372   1.13606472e-05      -46.290935      0.997051005      43.5350637
8.22                 0.997062128      42.7303079   1.16065427e-05     -47.4745352   1.15756921e-05     -47.1097717       0.99706297      42.7207674
8.224                0.997074127      41.9201818    1.1826004e-05     -48.3056913   1.17942846e-05     -47.9246638      0.997074963      41.9106047
8.228                0.997086157      41.1141104   1.20491453e-05     -49.1318005   1.20164895e-05     -48.7356761      0.997086985      41.1044968
8.232                0.997098219      40.3120169   1.22760294e-05     -49.9529577   1.22423727e-05     -49.5428722      0.997099037       40.302367
8.236                0.997110314      39.5138267     1.250672e-05     -50.7692572   1.24720015e-05     -50.3463143       0.99711112      39.5041407
8.24                 0.997122441       38.719467   1.27412826e-05     -51.5807923   1.27054445e-05      -51.146063      0.997123234       38.709745
8.244                  0.9971346      37.9288667   1.29797838e-05     -52.3876559   1.29427717e-05     -51.9421778      0.997135379      37.9191088
8.248                 0.99714679      37.1419566   1.32222915e-05     -53.1899396   1.31840545e-05     -52.7347169      0.997147552       37.132163
8.252                0.997159008      36.3586692   1.34688753e-05     -53.9877341   1.34293658e-05     -53.5237372      0.997159754        36.34884
8.256                0.997171254      35.5789387   1.37196061e-05      -54.781129   1.36787801e-05     -54.3092945      0.997171981       35.569074
8.26                 0.997183525      34.8027009   1.39745564e-05     -55.5702127   1.39323731e-05     -55.0914433      0.997184232      34.7928008
8.264                0.997195818       34.029893   1.42338003e-05     -56.3550723   1.41902222e-05     -55.8702371      0.997196504      34.0199577
8.268                0.997208131      33.2604541   1.44974132e-05     -57.1357936   1.44524065e-05     -56.6457283      0.997208795      33.2504836
8.272                0.997220459      32.4943244   1.47654726e-05     -57.9124612   1.47190066e-05     -57.4179681      0.997221101      32.4843189
8.276                  0.9972328      31.7314459   1.50380574e-05     -58.6851579   1.49901047e-05     -58.1870068      0.997233418      31.7214053
8.28                  0.99724515      30.9717616   1.53152482e-05     -59.4539656   1.52657848e-05     -58.9528937      0.997245744       30.961686
8.284                0.997257505      30.2152161   1.55971276e-05     -60.2189644   1.55461325e-05      -59.715677      0.997258074      30.2051057
8.288                0.997269862      29.4617554   1.58837796e-05     -60.9802329   1.58312353e-05      -60.475404      0.997270406      29.4516101
8.292                0.997282216      28.7113265   1.61752905e-05     -61.7378485   1.61211824e-05     -61.2321212      0.997282734      28.7011464
8.296                0.997294563      27.9638778   1.64717482e-05     -62.4918868   1.64160649e-05     -61.9858739      0.997295054       27.953663
8.3                  0.997306898       27.219359   1.67732427e-05     -63.2424221   1.67159758e-05     -62.7367069      0.997307363      27.2091093
8.304                0.997319218      26.4777207   1.70798658e-05      -63.989527     1.702101e-05     -63.4846639      0.997319656      26.4674363
8.308                0.997331518      25.7389148   1.73917115e-05     -64.7332728   1.73312643e-05     -64.2297878      0.997331928      25.7285956
8.312                0.997343793      25.0028944   1.77088758e-05     -65.4737292   1.76468376e-05     -64.9721207      0.997344176      24.9925404
8.316                0.997356039      24.2696135   1.80314568e-05     -66.2109644    1.7967831e-05     -65.7117039      0.997356394      24.2592246
8.32                 0.997368251      23.5390271   1.83595549e-05      -66.945045   1.82943473e-05      -66.448578      0.997368579      23.5286034
8.324                0.997380424      22.8110914   1.86932724e-05     -67.6760364    1.8626492e-05     -67.1827828      0.997380725      22.8006327
8.328                0.997392555      22.0857634   1.90327143e-05     -68.4040023   1.89643723e-05     -67.9143574      0.997392829      22.0752698
8.332                0.997404638      21.3630011   1.93779877e-05      -69.129005    1.9308098e-05       -68.64334      0.997404885      21.3524724
8.336                0.997416669      20.6427636   1.97292019e-05     -69.8511055    1.9657781e-05     -69.3697684       0.99741689      20.6321998
8.34                 0.997428644      19.9250106    2.0086469e-05     -70.5703633   2.00135358e-05     -70.0936795      0.997428838      19.9144115
8.344                0.997440558      19.2097029   2.04499032e-05     -71.2868365   2.03754791e-05     -70.8151096      0.997440726      19.1990684
8.348                0.997452406       18.496802   2.08196216e-05     -72.0005817   2.07437302e-05     -71.5340944      0.997452548       18.486132
8.352                0.997464184      17.7862703   2.11957436e-05     -72.7116544   2.11184107e-05     -72.2506689      0.997464302      17.7755647
8.356                0.997475889      17.0780709   2.15783915e-05     -73.4201087   2.14996452e-05     -72.9648675      0.997475982      17.0673296
8.36                 0.997487515       16.372168     2.196769e-05     -74.1259973   2.18875606e-05      -73.676724      0.997487583      16.3613907
8.364                0.997499058       15.668526   2.23637669e-05     -74.8293717   2.22822866e-05     -74.3862716      0.997499103      15.6577127
8.368                0.997510515      14.9671106   2.27667527e-05     -75.5302821   2.26839557e-05     -75.0935429      0.997510538       14.956261
8.372                0.997521881      14.2678878   2.31767807e-05     -76.2287775   2.30927033e-05     -75.7985701      0.997521882      14.2570018
8.376                0.997533153      13.5708245   2.35939874e-05     -76.9249058   2.35086676e-05     -76.5013846      0.997533132      13.5599019
8.38                 0.997544326      12.8758883   2.40185121e-05     -77.6187135   2.39319899e-05     -77.2020175      0.997544285      12.8649288
8.384                0.997555397      12.1830473   2.44504974e-05      -78.310246   2.43628143e-05     -77.9004992      0.997555336      12.1720508
8.388                0.997566362      11.4922703   2.48900889e-05     -78.9995478   2.48012883e-05     -78.5968596      0.997566282      11.4812366
8.392                0.997577218      10.8035268   2.53374356e-05      -79.686662   2.52475624e-05     -79.2911282       0.99757712      10.7924556
8.396                0.997587961      10.1167868   2.57926897e-05     -80.3716307   2.57017905e-05     -79.9833341      0.997587846      10.1056778
8.4                  0.997598588      9.43202084    2.6256007e-05     -81.0544951   2.61641297e-05     -80.6735056      0.997598456      9.42087394
8.404                0.997609095      8.74920023   2.67275465e-05     -81.7352952   2.66347406e-05     -81.3616708      0.997608948      8.73801511
8.408                 0.99761948      8.06829667    2.7207471e-05     -82.4140701   2.71137873e-05     -82.0478573      0.997619319      8.05707307
8.412                0.997629739      7.38928243   2.76959469e-05     -83.0908578   2.76014374e-05     -82.7320921      0.997629564      7.37802008
8.416                 0.99763987       6.7121303   2.81931441e-05     -83.7656954   2.80978624e-05      -83.414402      0.997639682      6.70082894
8.42                 0.997649869      6.03681361   2.86992367e-05     -84.4386192   2.86032373e-05     -84.0948133       0.99764967      6.02547293
8.424                0.997659734      5.36330615   2.92144024e-05     -85.1096643    2.9117741e-05     -84.7733517      0.997659525      5.35192587
8.428                0.997669463       4.6915822    2.9738823e-05     -85.7788653   2.96415565e-05     -85.4500428      0.997669244      4.68016201
8.432                0.997679052      4.02161651   3.02726845e-05     -86.4462555   3.01748707e-05     -86.1249115      0.997678824      4.01015611
8.436                0.997688499      3.35338428   3.08161768e-05     -87.1118678   3.07178746e-05     -86.7979825      0.997688265      3.34188336
8.44                 0.997697802      2.68686116   3.13694945e-05     -87.7757339   3.12707636e-05     -87.4692801      0.997697562      2.67531939
8.444                 0.99770696      2.02202321   3.19328362e-05      -88.437885   3.18337373e-05     -88.1388283      0.997706714      2.01044028
8.448                0.997715969      1.35884694   3.25064053e-05     -89.0983514   3.24069997e-05     -88.8066504      0.997715719      1.34722251
8.452                0.997724828     0.697309245   3.30904095e-05     -89.7571626   3.29907595e-05     -89.4727698      0.997724576     0.685642966
8.456                0.997733535    0.0373874064   3.36850615e-05     -90.4143474     3.358523e-05     -90.1372093      0.997733281    0.0256789415
8.46                 0.997742088    -0.620940893   3.42905787e-05      -91.069934   3.41906293e-05     -90.7999914      0.997741833    -0.632691894
8.464                0.997750486      -1.2776976   3.49071834e-05     -91.7239499   3.48071802e-05     -91.4611382      0.997750232      -1.2894915
8.468                0.997758727     -1.93290431   3.55351031e-05     -92.3764217   3.54351109e-05     -92.1206716      0.997758474     -1.94474145
8.472                0.997766809     -2.58658225   3.61745703e-05     -93.0273756   3.60746543e-05     -92.7786132      0.997766559     -2.59846301
8.476                0.997774732     -3.23875232   3.68258229e-05      -93.676837    3.6726049e-05     -93.4349842      0.997774486     -3.25067706
8.48                 0.997782494     -3.88943505   3.74891044e-05     -94.3248309   3.73895386e-05     -94.0898055      0.997782252     -3.90140415
8.484                0.997790093      -4.5386507   3.81646636e-05     -94.9713816   3.80653724e-05     -94.7430977      0.997789858     -4.55066453
8.488                 0.99779753     -5.18641917   3.88527551e-05     -95.6165127   3.87538055e-05     -95.3948812      0.997797302     -5.19847812
8.492                0.997804802     -5.83276006   3.95536396e-05     -96.2602474   3.94550986e-05     -96.0451762      0.997804582     -5.84486452
8.496                0.997811909      -6.4776927   4.02675834e-05     -96.9026084   4.01695185e-05     -96.6940022      0.997811699     -6.48984306
8.5                  0.997818851      -7.1212361   4.09948592e-05     -97.5436176   4.08973379e-05      -97.341379      0.997818652     -7.13343274
8.504                0.997825627     -7.76340898   4.17357459e-05     -98.1832968    4.1638836e-05     -97.9873258      0.997825438     -7.77565231
8.508                0.997832235     -8.40422983   4.24905289e-05      -98.821667   4.23942982e-05     -98.6318615       0.99783206     -8.41652024
8.512                0.997838676     -9.04371682   4.32595003e-05     -99.4587488   4.31640167e-05      -99.275005      0.997838514     -9.05605472
8.516                0.997844949      -9.6818879   4.40429588e-05     -100.094562   4.39482903e-05     -99.9167748      0.997844802      -9.6942737
8.52                 0.997851055     -10.3187608   4.48412102e-05     -100.729128   4.47474247e-05     -100.557189      0.997850923     -10.3311949
8.524                0.997856992     -10.9543528   4.56545673e-05     -101.362463   4.55617328e-05     -101.196266      0.997856877     -10.9668356
8.528                 0.99786276     -11.5886813   4.64833504e-05     -101.994589   4.63915346e-05     -101.834023      0.997862663     -11.6012132
8.532                 0.99786836     -12.2217631    4.7327887e-05     -102.625523   4.72371578e-05     -102.470479      0.997868282     -12.2343446
8.536                0.997873791     -12.8536151   4.81885126e-05     -103.255283   4.80989374e-05      -103.10565      0.997873733     -12.8662465
8.54                 0.997879054     -13.4842537   4.90655703e-05     -103.883887   4.89772166e-05     -103.739553      0.997879017     -13.4969355
8.544                0.997884149     -14.1136953   4.99594115e-05     -104.511353   4.98723465e-05     -104.372206      0.997884134     -14.1264279
8.548                0.997889076     -14.7419559   5.08703958e-05     -105.137697   5.07846863e-05     -105.003626      0.997889083     -14.7547398
8.552                0.997893835     -15.3690515   5.17988913e-05     -105.762936    5.1714604e-05     -105.633828      0.997893866      -15.381887
8.556                0.997898427     -15.9949978   5.27452748e-05     -106.387086    5.2662476e-05      -106.26283      0.997898483     -16.0078854
8.56                 0.997902853     -16.6198103   5.37099321e-05     -107.010164   5.36286877e-05     -106.890648      0.997902933     -16.6327504
8.564                0.997907112     -17.2435044   5.46932581e-05     -107.632185   5.46136337e-05     -107.517297      0.997907219     -17.2564974
8.568                0.997911205     -17.8660952   5.56956572e-05     -108.253165   5.56177179e-05     -108.142793      0.997911339     -17.8791415
8.572                0.997915133     -18.4875977   5.67175434e-05     -108.873119    5.6641354e-05     -108.767153      0.997915295     -18.5006978
8.576                0.997918897     -19.1080267   5.77593406e-05     -109.492062   5.76849653e-05     -109.390392      0.997919088      -19.121181
8.58                 0.997922498     -19.7273969   5.88214829e-05     -110.110008   5.87489855e-05     -110.012524      0.997922718     -19.7406058
8.584                0.997925936     -20.3457227   5.99044149e-05     -110.726972   5.98338586e-05     -110.633566      0.997926186     -20.3589868
8.588                0.997929212     -20.9630187   6.10085918e-05     -111.342968   6.09400394e-05     -111.253532      0.997929493     -20.9763382
8.592                0.997932327     -21.5792988   6.21344799e-05      -111.95801   6.20679934e-05     -111.872438       0.99793264     -21.5926743
8.596                0.997935282     -22.1945773   6.32825567e-05     -112.572111   6.32181977e-05     -112.490297      0.997935628     -22.2080091
8.6                  0.997938079      -22.808868   6.44533114e-05     -113.185286   6.43911407e-05     -113.107126      0.997938458     -22.8223566
8.604                0.997940718     -23.4221846    6.5647245e-05     -113.797548   6.55873228e-05     -113.722937      0.997941131     -23.4357305
8.608                  0.9979432      -24.034541   6.68648707e-05     -114.408909   6.68072567e-05     -114.337746      0.997943648     -24.0481445
8.612                0.997945527     -24.6459505   6.81067143e-05     -115.019383   6.80514673e-05     -114.951566       0.99794601     -24.6596121
8.616                  0.9979477     -25.2564267   6.93733146e-05     -115.628982   6.93204927e-05     -115.564412      0.997948219     -25.2701467
8.62                  0.99794972     -25.8659827   7.06652233e-05      -116.23772   7.06148841e-05     -116.176298      0.997950275     -25.8797617
8.624                0.997951589     -26.4746318   7.19830061e-05     -116.845607   7.19352061e-05     -116.787238       0.99795218     -26.4884701
8.628                0.997953307      -27.082387   7.33272423e-05     -117.452658   7.32820374e-05     -117.397245      0.997953936     -27.0962851
8.632                0.997954877     -27.6892613   7.46985257e-05     -118.058883    7.4655971e-05     -118.006334      0.997955544     -27.7032197
8.636                0.997956299     -28.2952675   7.60974648e-05     -118.664296   7.60576147e-05     -118.614516      0.997957004     -28.3092865
8.64                 0.997957576     -28.9004184   7.75246833e-05     -119.268907   7.74875911e-05     -119.221807       0.99795832     -28.9144985
8.644                0.997958708     -29.5047268   7.89808204e-05     -119.872729   7.89465386e-05     -119.828219      0.997959491     -29.5188683
8.648                0.997959697      -30.108205   8.04665311e-05     -120.475772   8.04351116e-05     -120.433766       0.99796052     -30.1224085
8.652                0.997960545     -30.7108657    8.1982487e-05      -121.07805   8.19539805e-05      -121.03846      0.997961408     -30.7251315
8.656                0.997961254     -31.3127211   8.35293765e-05     -121.679573    8.3503833e-05     -121.642316      0.997962157     -31.3270497
8.66                 0.997961824     -31.9137837   8.51079054e-05     -122.280352   8.50853739e-05     -122.245345      0.997962768     -31.9281755
8.664                0.997962258     -32.5140657   8.67187972e-05     -122.880398   8.66993259e-05      -122.84756      0.997963243     -32.5285211
8.668                0.997962557     -33.1135793   8.83627939e-05     -123.479724   8.83464297e-05     -123.448975      0.997963583     -33.1280986
8.672                0.997962723     -33.7123364    9.0040656e-05     -124.078339   9.00274452e-05     -124.049603      0.997963791     -33.7269202
8.676                0.997962757     -34.3103492   9.17531637e-05     -124.676255   9.17431515e-05     -124.649455      0.997963867     -34.3249978
8.68                 0.997962662     -34.9076296   9.35011168e-05     -125.273483   9.34943475e-05     -125.248544      0.997963814     -34.9223434
8.684                0.997962439     -35.5041895   9.52853358e-05     -125.870033   9.52818525e-05     -125.846883      0.997963634      -35.518969
8.688                 0.99796209     -36.1000408   9.71066621e-05     -126.465917   9.71065071e-05     -126.444485      0.997963327     -36.1148863
8.692                0.997961616     -36.6951951   9.89659588e-05     -127.061144   9.89691732e-05     -127.041362      0.997962896     -36.7101071
8.696                 0.99796102     -37.2896643   0.000100864111     -127.655726   0.000100870735     -127.637525      0.997962343     -37.3046432
8.7                  0.997960303       -37.88346   0.000102802027     -128.249674     0.0001028121     -128.232988      0.997961669     -37.8985061
8.704                0.997959467     -38.4765939   0.000104780639     -128.842997   0.000104794199     -128.827763      0.997960876     -38.4917077
8.708                0.997958514     -39.0690775   0.000106800903     -129.435706   0.000106817986     -129.421861      0.997959966     -39.0842593
8.712                0.997957445     -39.6609223   0.000108863798     -130.027812   0.000108884441     -130.015295       0.99795894     -39.6761726
8.716                0.997956263     -40.2521399   0.000110970333     -130.619326   0.000110994571     -130.608078      0.997957802      -40.267459
8.72                 0.997954969     -40.8427417    0.00011312154     -131.210257   0.000113149405      -131.20022      0.997956551     -40.8581301
8.724                0.997953565     -41.4327391   0.000115318478     -131.800616   0.000115350005     -131.791734      0.997955191     -41.4481972
8.728                0.997952054     -42.0221436   0.000117562236     -132.390414   0.000117597455     -132.382632      0.997953722     -42.0376717
8.732                0.997950436     -42.6109665   0.000119853931      -132.97966   0.000119892873     -132.972926      0.997952148      -42.626565
8.736                0.997948714     -43.1992191   0.000122194708     -133.568366   0.000122237402     -133.562628      0.997950469     -43.2148884
8.74                 0.997946889     -43.7869128   0.000124585745     -134.156541    0.00012463222     -134.151749      0.997948687     -43.8026533
8.744                0.997944964     -44.3740588    0.00012702825     -134.744196   0.000127078532     -134.740302      0.997946805     -44.3898708
8.748                 0.99794294     -44.9606685   0.000129523462     -135.331341   0.000129577578     -135.328298      0.997944824     -44.9765524
8.752                0.997940819      -45.546753   0.000132072657     -135.917986   0.000132130631      -135.91575      0.997942746     -45.5627093
8.756                0.997938603     -46.1323237   0.000134677141     -136.504142   0.000134738997     -136.502668      0.997940572     -46.1483526
8.76                 0.997936294     -46.7173917   0.000137338257      -137.08982   0.000137404018     -137.089065      0.997938305     -46.7334937
8.764                0.997933894     -47.3019683   0.000140057386     -137.675029   0.000140127073     -137.674952      0.997935947     -47.3181437
8.768                0.997931404     -47.8860646   0.000142835945     -138.259779   0.000142909577     -138.260341      0.997933499     -47.9023138
8.772                0.997928826      -48.469692   0.000145675388     -138.844082   0.000145752985     -138.845244      0.997930963     -48.4860154
8.776                0.997926162     -49.0528616    0.00014857721     -139.427947    0.00014865879     -139.429672       0.99792834     -49.0692595
8.78                 0.997923414     -49.6355846   0.000151542949     -140.011385   0.000151628528     -140.013638      0.997925633     -49.6520574