! TOUCHSTONE file generated by CST MICROWAVE STUDIO
! Date and time: Sat Oct  4 19:50:42 2025
! Project name: Dise˝oBPF_conPerdidas_plata.cst
! Parameters = {L=20; Lc1=18.773; Lc2=21.2156; Ltot=127.477; a=19.05; b=9.525; t=1.5; w1=11.9246; w2=8.70252; w3=8.01241}
! Header version: 2024
! Port assignment regex: !\s*Touchstone port\s*([0-9]+)\s*=\s*(CST MWS port|CST DES external port|CST DES block port)\s*(.+)\s* \(\"(.*)\"\)(\s*mode\s*([0-9]+))?.*
! Touchstone port assignment:
! Touchstone port 1 = CST MWS port 1 ("")
! Touchstone port 2 = CST MWS port 2 ("")
! S-Parameters are not renormalized. Unphysical impedance of 610.369 will be written to the file.
# GHz S MA R 610.369
8                    0.996680391      96.4063749   5.43955191e-06      6.07496094   5.43954248e-06      6.07580047      0.996679055      96.4129957
8.004                0.996798861      95.1381843   5.58258896e-06      4.73143515   5.58738301e-06      4.69583954      0.996795864       95.144633
8.008                0.996904073      93.8858633   5.72735115e-06      3.41455726   5.73708853e-06      3.34889535      0.996899637       93.892163
8.012                0.996997308      92.6489008   5.87385474e-06      2.12256745   5.88865116e-06      2.03263325       0.99699164      92.6550724
8.016                 0.99707974       91.426807   6.02212011e-06     0.853852724   6.04206944e-06      0.74491204      0.997073029      91.4328691
8.02                  0.99715244      90.2191118   6.17217144e-06    -0.393066286   6.19734782e-06    -0.516232487      0.997144859      90.2250812
8.024                0.997216386      89.0253645   6.32403638e-06     -1.61954731   6.35449606e-06     -1.75260278      0.997208093      89.0312562
8.028                 0.99727247      87.8451325   6.47774576e-06     -2.82683732    6.5135288e-06      -2.9658535      0.997263611      87.8509599
8.032                0.997321508      86.6780009   6.63333335e-06     -4.01608232   6.67446511e-06      -4.1575043      0.997312213      86.6837758
8.036                0.997364241       85.523571   6.79083566e-06     -5.18833632   6.83732811e-06     -5.32895158       0.99735463      85.5293041
8.04                 0.997401347      84.3814606   6.95029173e-06     -6.34456931   7.00214466e-06     -6.48147907      0.997391527      84.3871613
8.044                 0.99743344      83.2513023   7.11174297e-06     -7.48567462   7.16894509e-06     -7.61626764      0.997423509      83.2569789
8.048                0.997461082      82.1327432   7.27523298e-06      -8.6124755   7.33776284e-06     -8.73440409      0.997451127      82.1384032
8.052                0.997484781      81.0254445   7.44080748e-06     -9.72573112   7.50863435e-06     -9.83688927       0.99747488      81.0310943
8.056                0.997505001      79.9290803   7.60851411e-06      -10.826142   7.68159877e-06     -10.9246453      0.997495222      79.9347257
8.06                  0.99752216      78.8433377   7.77840239e-06      -11.914355   7.85669779e-06     -11.9985224      0.997512565      78.8489836
8.064                0.997536639      77.7679156    7.9505236e-06     -12.9909677   8.03397548e-06     -13.0593048      0.997527281      77.7735664
8.068                0.997548782      76.7025245   8.12493069e-06     -14.0565325   8.21347818e-06     -14.1077164      0.997539709      76.7081839
8.072                0.997558902       75.646886   8.30167821e-06     -15.1115605   8.39525428e-06     -15.1444256      0.997550153      75.6525573
8.076                0.997567278       74.600732   8.48082228e-06     -16.1565247   8.57935422e-06     -16.1700501      0.997558888       74.606418
8.08                 0.997574165      73.5638047   8.66242047e-06     -17.1918629   8.76583026e-06     -17.1851609      0.997566163      73.5695078
8.084                 0.99757979      72.5358557   8.84653181e-06     -18.2179809   8.95473651e-06     -18.1902862        0.9975722      72.5415779
8.088                0.997584359      71.5166461   9.03321668e-06     -19.2352552   9.14612875e-06      -19.185915      0.997577201       71.522389
8.092                0.997588056      70.5059453   9.22253686e-06     -20.2440345   9.34006443e-06        -20.1725      0.997581345      70.5117105
8.096                0.997591045      69.5035316   9.41455541e-06     -21.2446427   9.53660255e-06     -21.1504606      0.997584793      69.5093202
8.1                  0.997593474      68.5091911    9.6093367e-06     -22.2373807   9.73580363e-06     -22.1201855      0.997587688      68.5150039
8.104                0.997595473      67.5227175   9.80694634e-06     -23.2225278   9.93772969e-06     -23.0820355      0.997590158      67.5285554
8.108                0.997597158       66.543912   1.00074512e-05     -24.2003438   1.01424441e-05     -24.0363452      0.997592316      66.5497755
8.112                0.997598633      65.5725829   1.02109194e-05     -25.1710703   1.03500118e-05     -24.9834253      0.997594263      65.5784724
8.116                0.997599986       64.608545   1.04174201e-05     -26.1349323   1.05604989e-05     -25.9235645      0.997596085      64.6144608
8.12                 0.997601299      63.6516198    1.0627024e-05     -27.0921393   1.07739728e-05      -26.857031      0.997597861       63.657562
8.124                 0.99760264      62.7016348   1.08398027e-05     -28.0428863   1.09905025e-05     -27.7840746      0.997599659      62.7076036
8.128                0.997604069      61.7584235   1.10558291e-05     -28.9873555    1.1210158e-05     -28.7049273      0.997601535       61.764419
8.132                0.997605638      60.8218252   1.12751772e-05     -29.9257167   1.14330107e-05     -29.6198055      0.997603541      60.8278471
8.136                0.997607391      59.8916843   1.14979223e-05     -30.8581287   1.16591333e-05     -30.5289107      0.997605719      59.8977327
8.14                 0.997609365      58.9678508   1.17241408e-05     -31.7847396   1.18885996e-05     -31.4324307      0.997608106      58.9739255
8.144                0.997611592      58.0501794   1.19539102e-05     -32.7056884    1.2121485e-05     -32.3305409      0.997610731      58.0562803
8.148                0.997614097      57.1385297   1.21873095e-05     -33.6211048   1.23578658e-05      -33.223405      0.997613619      57.1446565
8.152                  0.9976169       56.232766   1.24244186e-05     -34.5311106   1.25978196e-05      -34.111176       0.99761679      56.2389185
8.156                0.997620018      55.3327568   1.26653186e-05     -35.4358201   1.28414255e-05     -34.9939969       0.99762026      55.3389348
8.16                 0.997623462      54.4383749   1.29100921e-05     -36.3353407   1.30887637e-05     -35.8720017      0.997624039      54.4445782
8.164                 0.99762724      53.5494972   1.31588226e-05     -37.2297732   1.33399156e-05     -36.7453158      0.997628135      53.5557257
8.168                0.997631358      52.6660046    1.3411595e-05     -38.1192126    1.3594964e-05     -37.6140569      0.997632554       52.672258
8.172                0.997635817      51.7877815   1.36684955e-05     -39.0037485   1.38539931e-05     -38.4783354      0.997637296      51.7940596
8.176                0.997640617      50.9147161   1.39296114e-05     -39.8834656   1.41170882e-05     -39.3382551      0.997642362      50.9210188
8.18                 0.997645755      50.0466999   1.41950315e-05     -40.7584439   1.43843361e-05     -40.1939137      0.997647748       50.053027
8.184                0.997651227      49.1836279   1.44648457e-05      -41.628759   1.46558249e-05     -41.0454033       0.99765345      49.1899792
8.188                0.997657025      48.3253981   1.47391453e-05     -42.4944828    1.4931644e-05     -41.8928104      0.997659461      48.3317736
8.192                0.997663142      47.4719117   1.50180231e-05     -43.3556837   1.52118842e-05     -42.7362171      0.997665773      47.4783113
8.196                0.997669569      46.6230727    1.5301573e-05     -44.2124267    1.5496638e-05     -43.5757008      0.997672377      46.6294963
8.2                  0.997676293      45.7787881   1.55898905e-05     -45.0647738    1.5785999e-05     -44.4113348      0.997679263      45.7852357
8.204                0.997683306      44.9389676   1.58830724e-05     -45.9127842   1.60800625e-05     -45.2431888      0.997686419      44.9454392
8.208                0.997690592      44.1035233    1.6181217e-05     -46.7565148   1.63789251e-05     -46.0713288      0.997693834      44.1100191
8.212                0.997698141      43.2723703    1.6484424e-05     -47.5960199   1.66826851e-05     -46.8958176      0.997701494      43.2788901
8.216                0.997705938      42.4454255   1.67927947e-05      -48.431352   1.69914424e-05     -47.7167151      0.997709386      42.4519696
8.22                  0.99771397      41.6226087   1.71064319e-05     -49.2625614   1.73052984e-05     -48.5340786      0.997717498      41.6291771
8.224                0.997722221      40.8038417   1.74254398e-05      -50.089697   1.76243562e-05     -49.3479625      0.997725815      40.8104346
8.228                0.997730678      39.9890485   1.77499245e-05     -50.9128059   1.79487204e-05     -50.1584194      0.997734323      39.9956661
8.232                0.997739326      39.1781551   1.80799934e-05     -51.7319337   1.82784976e-05     -50.9654993      0.997743008      39.1847976
8.236                 0.99774815      38.3710897   1.84157557e-05      -52.547125    1.8613796e-05     -51.7692506      0.997751856      38.3777573
8.24                 0.997757136      37.5677823   1.87573223e-05     -53.3584229   1.89547257e-05     -52.5697196      0.997760852      37.5744753
8.244                0.997766269      36.7681648   1.91048057e-05     -54.1658698   1.93013983e-05     -53.3669511      0.997769982      36.7748835
8.248                0.997775535       35.972171   1.94583204e-05     -54.9695068   1.96539278e-05     -54.1609885      0.997779233      35.9789157
8.252                0.997784919      35.1797363   1.98179825e-05     -55.7693746   2.00124296e-05     -54.9518737      0.997788591      35.1865074
8.256                0.997794406      34.3907979   2.01839099e-05     -56.5655126   2.03770216e-05     -55.7396471      0.997798042      34.3975957
8.26                 0.997803984      33.6052945   2.05562226e-05     -57.3579601   2.07478234e-05     -56.5243482      0.997807572      33.6121195
8.264                0.997813639      32.8231665   2.09350423e-05     -58.1467555   2.11249566e-05     -57.3060153       0.99781717      32.8300191
8.268                0.997823358      32.0443557   2.13204927e-05     -58.9319366   2.15085451e-05     -58.0846858      0.997826821      32.0512363
8.272                0.997833127      31.2688054   2.17126996e-05     -59.7135411   2.18987151e-05     -58.8603961      0.997836514      31.2757145
8.276                0.997842933      30.4964604   2.21117907e-05      -60.491606   2.22955947e-05     -59.6331818      0.997846236      30.5033983
8.28                 0.997852766      29.7272666    2.2517896e-05     -61.2661681   2.26993145e-05     -60.4030776      0.997855976       29.734234
8.284                0.997862613      28.9611714   2.29311475e-05     -62.0372639   2.31100074e-05     -61.1701178      0.997865723      28.9681688
8.288                0.997872463      28.1981235   2.33516793e-05     -62.8049297   2.35278088e-05     -61.9343356      0.997875465      28.2051515
8.292                0.997882304      27.4380728   2.37796279e-05     -63.5692016   2.39528564e-05      -62.695764      0.997885193      27.4451318
8.296                0.997892127      26.6809703   2.42151321e-05     -64.3301155   2.43852905e-05     -63.4544352      0.997894896      26.6880609
8.3                  0.997901921      25.9267683   2.46583329e-05     -65.0877073    2.4825254e-05      -64.210381      0.997904565      25.9338911
8.304                0.997911676      25.1754199   2.51093739e-05     -65.8420127   2.52728924e-05     -64.9636327       0.99791419      25.1825755
8.308                0.997921384      24.4268796   2.55684008e-05     -66.5930673    2.5728354e-05     -65.7142212      0.997923762      24.4340686
8.312                0.997931035      23.6811029   2.60355622e-05     -67.3409068   2.61917899e-05     -66.4621769      0.997933274      23.6883258
8.316                0.997940621       22.938046    2.6511009e-05     -68.0855669    2.6663354e-05     -67.2075299      0.997942717      22.9453036
8.32                 0.997950134      22.1976664    2.6994895e-05     -68.8270832   2.71432031e-05       -67.95031      0.997952084      22.2049593
8.324                0.997959567      21.4599225   2.74873762e-05     -69.5654915   2.76314971e-05     -68.6905464      0.997961367      21.4672513
8.328                0.997968911      20.7247734    2.7988612e-05     -70.3008276    2.8128399e-05     -69.4282683      0.997970559      20.7321387
8.332                0.997978162      19.9921792    2.8498764e-05     -71.0331272   2.86340748e-05     -70.1635045      0.997979656      19.9995818
8.336                0.997987312       19.262101    2.9017997e-05     -71.7624264   2.91486938e-05     -70.8962834       0.99798865      19.2695414
8.34                 0.997996355      18.5345004   2.95464789e-05     -72.4887611   2.96724287e-05     -71.6266334      0.997997536      18.5419793
8.344                0.998005286      17.8093401   3.00843802e-05     -73.2121676   3.02054557e-05     -72.3545825      0.998006308      17.8168583
8.348                  0.9980141      17.0865834   3.06318749e-05      -73.932682   3.07479541e-05     -73.0801584      0.998014963      17.0941415
8.352                0.998022792      16.3661945   3.11891399e-05     -74.6503409   3.13001072e-05     -73.8033887      0.998023495       16.373793
8.356                0.998031357      15.6481381   3.17563554e-05     -75.3651808   3.18621017e-05     -74.5243006        0.9980319      15.6557779
8.36                 0.998039792      14.9323798   3.23337051e-05     -76.0772384   3.24341282e-05     -75.2429214      0.998040176      14.9400615
8.364                0.998048093      14.2188857   3.29213758e-05     -76.7865506    3.3016381e-05     -75.9592779      0.998048317        14.22661
8.368                0.998056256      13.5076229   3.35195582e-05     -77.4931543   3.36090586e-05     -76.6733969      0.998056322      13.5153904
8.372                0.998064278      12.7985587   3.41284463e-05     -78.1970869   3.42123632e-05     -77.3853048      0.998064187      12.8063702
8.376                0.998072157      12.0916614   3.47482378e-05     -78.8983857   3.48265015e-05      -78.095028       0.99807191      12.0995175
8.38                 0.998079891      11.3868997   3.53791342e-05     -79.5970883   3.54516841e-05     -78.8025927      0.998079488       11.394801
8.384                0.998087476      10.6842428   3.60213409e-05     -80.2932323   3.60881262e-05     -79.5080247      0.998086921      10.6921901
8.388                0.998094911      9.98366077   3.66750673e-05     -80.9868557   3.67360475e-05       -80.21135      0.998094205      9.99165472
8.392                0.998102195      9.28512397   3.73405269e-05     -81.6779966    3.7395672e-05      -80.912594       0.99810134      9.29316521
8.396                0.998109326      8.58860338   3.80179372e-05     -82.3666933   3.80672287e-05     -81.6117821      0.998108325      8.59669259
8.4                  0.998116304      7.89407053   3.87075202e-05     -83.0529842   3.87509513e-05     -82.3089397      0.998115159      7.90220836
8.404                0.998123127       7.2014974   3.94095021e-05     -83.7369079   3.94470782e-05     -83.0040917       0.99812184      7.20968451
8.408                0.998129794       6.5108565    4.0124114e-05     -84.4185033   4.01558532e-05      -83.697263       0.99812837      6.51909354
8.412                0.998136306       5.8221208   4.08515912e-05     -85.0978094    4.0877525e-05     -84.3884783      0.998134746      5.83040841
8.416                0.998142662      5.13526372   4.15921742e-05     -85.7748654   4.16123478e-05     -85.0777622       0.99814097      5.14360255
8.42                 0.998148863      4.45025914   4.23461082e-05     -86.4497104   4.23605812e-05     -85.7651388      0.998147042      4.45864982
8.424                0.998154907      3.76708139   4.31136436e-05     -87.1223842   4.31224902e-05     -86.4506325      0.998152962      3.77552455
8.428                0.998160797      3.08570518   4.38950358e-05     -87.7929262   4.38983458e-05     -87.1342671       0.99815873      3.09420146
8.432                0.998166532      2.40610568   4.46905458e-05     -88.4613764   4.46884246e-05     -87.8160663      0.998164347      2.41465569
8.436                0.998172114      1.72825844   4.55004401e-05     -89.1277745   4.54930093e-05     -88.4960539      0.998169814      1.73686278
8.44                 0.998177542      1.05213938   4.63249907e-05     -89.7921608   4.63123887e-05     -89.1742531      0.998175132      1.06079867
8.444                0.998182819     0.377724815   4.71644758e-05     -90.4545754   4.71468581e-05     -89.8506872      0.998180302     0.386439654
8.448                0.998187945    -0.295008567   4.80191793e-05     -91.1150585   4.79967189e-05     -90.5253793      0.998185326    -0.286237586
8.452                0.998192922    -0.966083733   4.88893915e-05     -91.7736505   4.88622796e-05     -91.1983521      0.998190204    -0.957256024
8.456                0.998197751      -1.6355233   4.97754092e-05      -92.430392   4.97438551e-05     -91.8696284      0.998194939     -1.62663828
8.46                 0.998202434     -2.30334956   5.06775356e-05     -93.0853234   5.06417673e-05     -92.5392305      0.998199531     -2.29440665
8.464                0.998206972     -2.96958444    5.1596081e-05     -93.7384853   5.15563455e-05     -93.2071807      0.998203983     -2.96058309
8.468                0.998211368      -3.6342496   5.25313624e-05     -94.3899183   5.24879262e-05     -93.8735011      0.998208297     -3.62518925
8.472                0.998215622     -4.29736636   5.34837044e-05     -95.0396629   5.34368531e-05     -94.5382136      0.998212474     -4.28824644
8.476                0.998219737     -4.95895573   5.44534389e-05     -95.6877598   5.44034782e-05     -95.2013398      0.998216516     -4.94977571
8.48                 0.998223716     -5.61903845   5.54409056e-05     -96.3342493   5.53881608e-05     -95.8629013      0.998220425     -5.60979779
8.484                0.998227559     -6.27763497   5.64464522e-05     -96.9791721   5.63912686e-05     -96.5229193      0.998224203     -6.26833313
8.488                 0.99823127     -6.93476545   5.74704347e-05     -97.6225683   5.74131775e-05     -97.1814149      0.998227853     -6.92540191
8.492                0.998234851     -7.59044979   5.85132174e-05     -98.2644783    5.8454272e-05     -97.8384091      0.998231377     -7.58102403
8.496                0.998238303     -8.24470763   5.95751736e-05      -98.904942   5.95149452e-05     -98.4939226      0.998234777     -8.23521914
8.5                  0.998241629     -8.89755834   6.06566855e-05     -99.5439993   6.05955993e-05     -99.1479759      0.998238055     -8.88800662
8.504                0.998244832     -9.54902106   6.17581449e-05      -100.18169   6.16966455e-05     -99.8005892      0.998241214     -9.53940561
8.508                0.998247913     -10.1991147   6.28799531e-05     -100.818053   6.28185044e-05     -100.451783      0.998244256      -10.189435
8.512                0.998250877     -10.8478579   6.40225213e-05     -101.453127   6.39616065e-05     -101.101577      0.998247183     -10.8381135
8.516                0.998253723      -11.495269   6.51862713e-05     -102.086952    6.5126392e-05      -101.74999      0.998249998     -11.4854595
8.52                 0.998256456     -12.1413664   6.63716351e-05     -102.719566   6.63133111e-05     -102.397044      0.998252703     -12.1314912
8.524                0.998259078     -12.7861679   6.75790561e-05     -103.351005   6.75228248e-05     -103.042756      0.998255302     -12.7762266
8.528                0.998261592     -13.4296914   6.88089888e-05     -103.981309   6.87554045e-05     -103.687146      0.998257795     -13.4196835
8.532                0.998263999     -14.0719544   7.00618993e-05     -104.610513   7.00115327e-05     -104.330233      0.998260186     -14.0618794
8.536                0.998266302     -14.7129743   7.13382659e-05     -105.238654    7.1291703e-05     -104.972036      0.998262478     -14.7028318
8.54                 0.998268505     -15.3527682   7.26385793e-05     -105.865767   7.25964207e-05     -105.612573      0.998264672     -15.3425579
8.544                0.998270609     -15.9913533   7.39633429e-05     -106.491888   7.39262028e-05     -106.251864      0.998266771     -15.9810746
8.548                0.998272617     -16.6287462   7.53130733e-05     -107.117051   7.52815784e-05     -106.889925      0.998268777     -16.6183987
8.552                0.998274531     -17.2649636   7.66883008e-05     -107.741289   7.66630894e-05     -107.526776      0.998270694     -17.2545469
8.556                0.998276355      -17.900022   7.80895695e-05     -108.364636   7.80712902e-05     -108.162433      0.998272523     -17.8895356
8.56                  0.99827809     -18.5339376    7.9517438e-05     -108.987122   7.95067482e-05     -108.796916      0.998274267     -18.5233812
8.564                0.998279739     -19.1667266   8.09724798e-05     -109.608779   8.09700446e-05     -109.430241      0.998275929     -19.1560997
8.568                0.998281305     -19.7984049   8.24552835e-05     -110.229638   8.24617743e-05     -110.062426       0.99827751     -19.7877072
8.572                0.998282789     -20.4289883   8.39664533e-05     -110.849726   8.39825464e-05     -110.693487      0.998279013     -20.4182194
8.576                0.998284195     -21.0584926   8.55066098e-05     -111.469073   8.55329844e-05     -111.323443       0.99828044     -21.0476519
8.58                 0.998285525     -21.6869331   8.70763898e-05     -112.087705   8.71137269e-05     -111.952309      0.998281794     -21.6760204
8.584                 0.99828678     -22.3143253   8.86764473e-05     -112.705649    8.8725428e-05     -112.580103      0.998283077     -22.3033402
8.588                0.998287964     -22.9406845   9.03074537e-05     -113.322929   9.03687573e-05     -113.206841       0.99828429     -22.9296265
8.592                0.998289078     -23.5660256   9.19700983e-05     -113.939569   9.20444008e-05     -113.832539      0.998285437     -23.5548944
8.596                0.998290125     -24.1903637   9.36650887e-05     -114.555592   9.37530608e-05     -114.457214       0.99828652     -24.1791589
8.6                  0.998291108     -24.8137136   9.53931515e-05     -115.171018   9.54954571e-05     -115.080882       0.99828754     -24.8024348
8.604                0.998292027       -25.43609   9.71550324e-05     -115.785869   9.72723268e-05     -115.703559      0.998288499     -25.4247369
8.608                0.998292886     -26.0575076    9.8951497e-05     -116.400163   9.90844248e-05      -116.32526        0.9982894     -26.0460798
8.612                0.998293686     -26.6779807   0.000100783331     -117.013918   0.000100932525     -116.946001      0.998290245     -26.6664778
8.616                 0.99829443     -27.2975238   0.000102651341     -117.627152   0.000102817419     -117.565797      0.998291035     -27.2859455
8.62                 0.998295119     -27.9161512   0.000104556356     -118.239878   0.000104739921     -118.184665      0.998291773      -27.904497
8.624                0.998295756      -28.533877   0.000106499224     -118.852112   0.000106700861     -118.802618       0.99829246     -28.5221466
8.628                0.998296342     -29.1507152   0.000108480817     -119.463866   0.000108701092     -119.419673      0.998293097     -29.1389083
8.632                0.998296879     -29.7666798    0.00011050203     -120.075153   0.000110741489     -120.035844      0.998293688      -29.754796
8.636                0.998297369     -30.3817847   0.000112563782     -120.685984   0.000112822946     -120.651146      0.998294233     -30.3698237
8.64                 0.998297814     -30.9960437   0.000114667013     -121.296367   0.000114946382     -121.265594      0.998294735      -30.984005
8.644                0.998298215     -31.6094704    0.00011681269     -121.906312   0.000117112738     -121.879201      0.998295194     -31.5973537
8.648                0.998298574     -32.2220784   0.000119001804     -122.515826   0.000119322977     -122.491984      0.998295612     -32.2098833
8.652                0.998298893     -32.8338812   0.000121235372     -123.124915   0.000121578089     -123.103955      0.998295991     -32.8216075
8.656                0.998299173     -33.4448923   0.000123514436     -123.733586   0.000123879087      -123.71513      0.998296333     -33.4325395
8.66                 0.998299416      -34.055125   0.000125840066     -124.341843    0.00012622701     -124.325522      0.998296638     -34.0426928
8.664                0.998299622     -34.6645927   0.000128213359      -124.94969   0.000128622923     -124.935146      0.998296908     -34.6520807
8.668                0.998299795     -35.2733085   0.000130635439      -125.55713    0.00013106792     -125.544015      0.998297145     -35.2607163
8.672                0.998299934     -35.8812855   0.000133107459     -126.164166    0.00013356312     -126.152143      0.998297349     -35.8686129
8.676                0.998300041     -36.4885369   0.000135630602     -126.770798   0.000136109672     -126.759545      0.998297522     -36.4757834
8.68                 0.998300118     -37.0950756    0.00013820608     -127.377029   0.000138708754     -127.366232      0.998297665      -37.082241
8.684                0.998300166     -37.7009147   0.000140835138     -127.982858   0.000141361575      -127.97222      0.998297778     -37.6879985
8.688                0.998300185      -38.306067   0.000143519048     -128.588285   0.000144069375     -128.577521      0.998297864     -38.2930688
8.692                0.998300177     -38.9105454   0.000146259118     -129.193311   0.000146833426      -129.18215      0.998297923     -38.8974649
8.696                0.998300142     -39.5143626   0.000149056688     -129.797934   0.000149655031     -129.786118      0.998297956     -39.5011994
8.7                  0.998300083     -40.1175314   0.000151913132     -130.402153   0.000152535529      -130.38944      0.998297963     -40.1042852
8.704                0.998299999     -40.7200646   0.000154829857     -131.005966   0.000155476293     -130.992129      0.998297947     -40.7067349
8.708                0.998299892     -41.3219747   0.000157808309     -131.609373   0.000158478732     -131.594197      0.998297907     -41.3085612
8.712                0.998299762     -41.9232743   0.000160849966     -132.212372   0.000161544293     -132.195658      0.998297844     -41.9097768
8.716                 0.99829961     -42.5239762   0.000163956347      -132.81496   0.000164674458     -132.796525      0.998297759      -42.510394
8.72                 0.998299438     -43.1240927   0.000167129009     -133.417137    0.00016787075      -133.39681      0.998297652     -43.1104256
8.724                0.998299244     -43.7236364   0.000170369548       -134.0189   0.000171134733     -133.996527      0.998297525      -43.709884
8.728                0.998299031     -44.3226197   0.000173679601     -134.620248   0.000174468011     -134.595688      0.998297377     -44.3087816
8.732                0.998298799     -44.9210552   0.000177060845     -135.221179    0.00017787223     -135.194306      0.998297209      -44.907131
8.736                0.998298548     -45.5189552   0.000180515002     -135.821693   0.000181349081     -135.792394      0.998297022     -45.5049445
8.74                 0.998298278     -46.1163322   0.000184043838     -136.421788   0.000184900299     -136.389964      0.998296816     -46.1022345
8.744                0.998297991     -46.7131984   0.000187649165     -137.021463   0.000188527668     -136.987028      0.998296591     -46.6990135
8.748                0.998297686     -47.3095663   0.000191332839     -137.620719   0.000192233016     -137.583601      0.998296349     -47.2952936
8.752                0.998297364     -47.9054482   0.000195096768     -138.219554   0.000196018223     -138.179693      0.998296087     -47.8910874
8.756                0.998297025     -48.5008564   0.000198942906      -138.81797   0.000199885218     -138.775319      0.998295809      -48.486407
8.76                 0.998296669     -49.0958032   0.000202873261     -139.415967   0.000203835984     -139.370489      0.998295512     -49.0812648
8.764                0.998296297      -49.690301   0.000206889891     -140.013547   0.000207872556     -139.965216      0.998295198     -49.6756732
8.768                0.998295909      -50.284362   0.000210994911      -140.61071   0.000211997026     -140.559514      0.998294867     -50.2696443
8.772                0.998295505     -50.8779985   0.000215190489     -141.207459   0.000216211541     -141.153394      0.998294518     -50.8631906
8.776                0.998295084     -51.4712229   0.000219478854     -141.803797    0.00022051831     -141.746869      0.998294151     -51.4563242
8.78                 0.998294647     -52.0640473    0.00022386229     -142.399726   0.000224919598     -142.339951      0.998293768     -52.0490574