! TOUCHSTONE file generated by CST MICROWAVE STUDIO
! Date and time: Sat Oct  4 18:39:48 2025
! Project name: Dise˝oBPF.cst
! Parameters = {L=20; Lc1=18.773; Lc2=21.2156; a=19.05; b=9.525; t=1.5; w1=11.9246; w2=8.70252; w3=8.01241}
! Header version: 2024
! Port assignment regex: !\s*Touchstone port\s*([0-9]+)\s*=\s*(CST MWS port|CST DES external port|CST DES block port)\s*(.+)\s* \(\"(.*)\"\)(\s*mode\s*([0-9]+))?.*
! Touchstone port assignment:
! Touchstone port 1 = CST MWS port 1 ("")
! Touchstone port 2 = CST MWS port 2 ("")
! S-Parameters are not renormalized. Unphysical impedance of 498.969 will be written to the file.
# GHz S MA R 498.969
8                              1      96.6335235    5.2053246e-06      6.64936779   5.20953159e-06       6.6421864      0.999996305      96.6513425
8.004                          1      95.3928888   5.34902157e-06      5.33117311   5.35109675e-06      5.26878781                1      95.4077952
8.008                          1      94.1644805   5.49395605e-06      4.03613733   5.49492799e-06      3.92200235                1      94.1767537
8.012                          1      92.9480991   5.64018497e-06      2.76268978    5.6410383e-06      2.60047904                1      92.9580004
8.016                          1      91.7435451   5.78776638e-06      1.50942208   5.78944294e-06      1.30295658                1      91.7513179
8.02                           1      90.5506187   5.93675921e-06      0.27506851   5.94015938e-06    0.0282566084                1      90.5564897
8.024                          1      89.3691203   6.08722315e-06    -0.941511055   6.09320711e-06     -1.22472249                1      89.3733004
8.028                          1      88.1988511   6.23921847e-06     -2.14134583   6.24860756e-06     -2.45701137                1      88.2015357
8.032                          1      87.0396127   6.39280589e-06     -3.32536694   6.40638398e-06     -3.66957499                1       87.040983
8.036                          1      85.8912081   6.54804657e-06     -4.49441858   6.56656133e-06     -4.86331753                1      85.8914316
8.04                           1      84.7534414   6.70500194e-06     -5.64926771   6.72916624e-06     -6.03908688                1      84.7526726
8.044                          1      83.6261184   6.86373374e-06     -6.79061264   6.89422688e-06     -7.19767883                1      83.6244994
8.048                          1      82.5090464    7.0243039e-06     -7.91909043   7.06177296e-06      -8.3398408                1      82.5067077
8.052                          1      81.4020345   7.18677457e-06     -9.03528352   7.23183561e-06     -9.46627544                1      81.3990957
8.056                          1       80.304894   7.35120808e-06     -10.1397255   7.40444737e-06     -10.5776438                1      80.3014641
8.06                           1      79.2174381    7.5176669e-06     -11.2329061   7.57964212e-06     -11.6745685                1      79.2136165
8.064                          1      78.1394825   7.68621369e-06      -12.315276   7.75745507e-06      -12.757636                1      78.1353592
8.068                          1       77.070845   7.85691128e-06     -13.3872504   7.93792271e-06     -13.8273996                1      77.0665015
8.072                          1      76.0113461   8.02982265e-06     -14.4492131   8.12108278e-06     -14.8843818                1      76.0068556
8.076                          1      74.9608086     8.205011e-06      -15.501519   8.30697423e-06     -15.9290758                1      74.9562367
8.08                           1       73.919058   8.38253969e-06     -16.5444977   8.49563725e-06     -16.9619483                1      73.9144631
8.084                          1      72.8859226   8.56247234e-06     -17.5784552    8.6871132e-06     -17.9834406                1      72.8813562
8.088                          1      71.8612331    8.7448728e-06     -18.6036766   8.88144461e-06      -18.993971                1      71.8567406
8.092                          1      70.8448231   8.92980518e-06     -19.6204281    9.0786752e-06     -19.9939356                1       70.840444
8.096                          1      69.8365291   9.11733389e-06     -20.6289587   9.27884983e-06     -20.9837103                1      69.8322972
8.1                            1      68.8361902   9.30752366e-06     -21.6295017   9.48201452e-06     -21.9636518                1      68.8321342
8.104                          1      67.8436483   9.50043958e-06     -22.6222761   9.68821643e-06      -22.934099                1      67.8397924
8.108                          1      66.8587483    9.6961471e-06     -23.6074883    9.8975039e-06     -23.8953742                1       66.855112
8.112                          1      65.8813378   9.89471211e-06     -24.5853327   1.01099264e-05     -24.8477838                1      65.8779365
8.116                          1      64.9112672   1.00962009e-05     -25.5559932   1.03255345e-05     -25.7916196                1      64.9081127
8.12                           1      63.9483899   1.03006804e-05     -26.5196439   1.05443801e-05     -26.7271598                1      63.9454902
8.124                          1      62.9925618   1.05082177e-05     -27.4764499    1.0766516e-05     -27.6546693                1      62.9899218
8.128                          1      62.0436419   1.07188809e-05     -28.4265683   1.09919965e-05      -28.574401                1      62.0412634
8.132                          1      61.1014918   1.09327384e-05     -29.3701486   1.12208768e-05     -29.4865964                1       61.099374
8.136                          1      60.1659758   1.11498593e-05     -30.3073334   1.14532134e-05     -30.3914862                1      60.1641154
8.14                  0.99987615      59.2369611   1.13703132e-05     -31.2382593    1.1689064e-05     -31.2892908      0.999886416      59.2353523
8.144                0.999752943      58.3143174   1.15941708e-05     -32.1630569   1.19284877e-05     -32.1802212      0.999774186      58.3129525
8.148                0.999631726      57.3979172   1.18215031e-05     -33.0818515   1.21715446e-05     -33.0644793      0.999663978      57.3967867
8.152                0.999512801      56.4876357   1.20523821e-05     -33.9947635    1.2418296e-05     -33.9422584      0.999556061      56.4867281
8.156                0.999396444      55.5833505   1.22868806e-05     -34.9019088   1.26688048e-05     -34.8137438       0.99945068       55.582653
8.16                 0.999282906      54.6849419   1.25250723e-05     -35.8033993   1.29231349e-05     -35.6791134      0.999348056      54.6844402
8.164                0.999172413      53.7922928   1.27670316e-05     -36.6993425   1.31813516e-05     -36.5385375      0.999248385      53.7919714
8.168                 0.99906517      52.9052883    1.3012834e-05     -37.5898428   1.34435216e-05     -37.3921798      0.999151846      52.9051307
8.172                0.998961359      52.0238162   1.32625561e-05     -38.4750011    1.3709713e-05     -38.2401977      0.999058595      52.0238051
8.176                0.998861143      51.1477668   1.35162751e-05      -39.354915   1.39799949e-05     -39.0827422       0.99896877      51.1478838
8.18                 0.998764666      50.2770325   1.37740697e-05     -40.2296794   1.42544383e-05     -39.9199586      0.998882493      50.2772587
8.184                0.998672054      49.4115082   1.40360194e-05     -41.0993864   1.45331154e-05     -40.7519868      0.998799868      49.4118241
8.188                0.998583417       48.551091    1.4302205e-05     -41.9641254   1.48160998e-05     -41.5789613      0.998720983      48.5514767
8.192                0.998498848      47.6956804   1.45727084e-05     -42.8239837   1.51034666e-05     -42.4010117      0.998645912      47.6961155
8.196                0.998418426       46.845178   1.48476128e-05     -43.6790461   1.53952925e-05      -43.218263      0.998574717      46.8456419
8.2                  0.998342215      45.9994876   1.51270027e-05     -44.5293953   1.56916557e-05     -44.0308354      0.998507443      45.9999595
8.204                0.998270267       45.158515   1.54109637e-05     -45.3751121    1.5992636e-05     -44.8388451      0.998444129      45.1589741
8.208                0.998202621      44.3221683    1.5699583e-05     -46.2162753   1.62983146e-05     -45.6424042      0.998384797      44.3225937
8.212                0.998139305      43.4903575   1.59929491e-05     -47.0529619   1.66087746e-05     -46.4416208      0.998329462      43.4907282
8.216                0.998080335      42.6629946   1.62911519e-05     -47.8852472   1.69241006e-05     -47.2365994      0.998278128        42.66329
8.22                  0.99802572      41.8399937   1.65942829e-05     -48.7132049    1.7244379e-05     -48.0274407      0.998230791      41.8401931
8.224                0.997975455      41.0212706   1.69024351e-05      -49.536907   1.75696977e-05     -48.8142425      0.998187438      41.0213538
8.228                 0.99792953      40.2067432    1.7215703e-05     -50.3564241   1.79001467e-05      -49.597099      0.998148047        40.20669
8.232                0.997887924      39.3963312   1.75341828e-05     -51.1718254   1.82358176e-05     -50.3761013       0.99811259      39.3961217
8.236                0.997850612      38.5899559   1.78579725e-05     -51.9831787   1.85768038e-05     -51.1513379      0.998081033      38.5895708
8.24                 0.997817557      37.7875406   1.81871717e-05     -52.7905505   1.89232008e-05     -51.9228941      0.998053333      37.7869609
8.244                 0.99778872      36.9890102   1.85218817e-05     -53.5940058   1.92751058e-05     -52.6908527      0.998029444      36.9882174
8.248                0.997764052      36.1942913   1.88622059e-05     -54.3936087    1.9632618e-05      -53.455294      0.998009314      36.1932673
8.252                0.997743501      35.4033123   1.92082493e-05     -55.1894218   1.99958387e-05     -54.2162955      0.997992885      35.4020395
8.256                0.997727009      34.6160029   1.95601189e-05     -55.9815069   2.03648712e-05     -54.9739326      0.997980095      34.6144643
8.26                 0.997714514      33.8322947   1.99179239e-05     -56.7699243   2.07398208e-05     -55.7282784      0.997970879      33.8304738
8.264                0.997705946      33.0521206   2.02817754e-05     -57.5547335   2.11207952e-05     -56.4794036      0.997965167      33.0500016
8.268                0.997701236      32.2754153   2.06517864e-05     -58.3359927   2.15079039e-05     -57.2273771      0.997962887      32.2729827
8.272                0.997700308      31.5021146   2.10280724e-05     -59.1137593   2.19012589e-05     -57.9722656      0.997963962      31.4993539
8.276                0.997703083       30.732156   2.14107509e-05     -59.8880895   2.23009745e-05     -58.7141338      0.997968314      30.7290531
8.28                  0.99770948      29.9654783   2.17999417e-05     -60.6590387   2.27071671e-05     -59.4530447      0.997975861      29.9620198
8.284                0.997719414      29.2020218    2.2195767e-05     -61.4266613   2.31199558e-05     -60.1890594      0.997986521      29.1981949
8.288                0.997732798      28.4417279   2.25983512e-05     -62.1910105   2.35394618e-05     -60.9222373      0.998000207      28.4375206
8.292                0.997749543      27.6845396   2.30078213e-05      -62.952139    2.3965809e-05     -61.6526362      0.998016833      27.6799405
8.296                0.997769558       26.930401   2.34243069e-05     -63.7100983   2.43991238e-05     -62.3803121      0.998036311      26.9253992
8.3                  0.997792751      26.1792575     2.384794e-05     -64.4649392   2.48395352e-05     -63.1053197      0.998058551      26.1738431
8.304                0.997819025      25.4310556   2.42788553e-05     -65.2167115   2.52871749e-05      -63.827712      0.998083462      25.4252192
8.308                0.997848286      24.6857432   2.47171901e-05     -65.9654642   2.57421772e-05     -64.5475407      0.998110952      24.6794762
8.312                0.997880438      23.9432693   2.51630846e-05     -66.7112456   2.62046793e-05     -65.2648561       0.99814093      23.9365636
8.316                0.997915381       23.203584   2.56166819e-05      -67.454103   2.66748212e-05     -65.9797071      0.998173303      23.1964322
8.32                 0.997953018      22.4666384   2.60781278e-05      -68.194083   2.71527457e-05     -66.6921414      0.998207978       22.459034
8.324                0.997993249      21.7323849   2.65475712e-05     -68.9312313   2.76385989e-05     -67.4022052      0.998244861      21.7243219
8.328                0.998035975      21.0007769   2.70251641e-05      -69.665593   2.81325296e-05     -68.1099439       0.99828386        20.99225
8.332                0.998081096      20.2717686   2.75110615e-05     -70.3972124   2.86346899e-05     -68.8154014      0.998324881      20.2627732
8.336                0.998128512      19.5453156   2.80054218e-05      -71.126133    2.9145235e-05     -69.5186206      0.998367831      19.5358476
8.34                 0.998178123      18.8213741   2.85084064e-05     -71.8523975   2.96643233e-05     -70.2196433      0.998412619      18.8114303
8.344                 0.99822983      18.0999016   2.90201804e-05      -72.576048   3.01921168e-05     -70.9185102      0.998459151      18.0894793
8.348                0.998283533      17.3808563    2.9540912e-05     -73.2971258   3.07287805e-05      -71.615261      0.998507336      17.3699534
8.352                0.998339133      16.6641973   3.00707732e-05     -74.0156716   3.12744833e-05     -72.3099344      0.998557084      16.6528124
8.356                0.998396531      15.9498848   3.06099395e-05     -74.7317254   3.18293974e-05     -73.0025683      0.998608304       15.938017
8.36                 0.998455629      15.2378796   3.11585901e-05     -75.4453264   3.23936987e-05     -73.6931993      0.998660907      15.2255287
8.364                 0.99851633      14.5281437    3.1716908e-05     -76.1565133   3.29675669e-05     -74.3818633      0.998714804        14.51531
8.368                0.998578537      13.8206395   3.22850801e-05     -76.8653239   3.35511855e-05     -75.0685956      0.998769909       13.807324
8.372                0.998642154      13.1153305   3.28632972e-05     -77.5717957   3.41447419e-05     -75.7534301      0.998826134      13.1015347
8.376                0.998707087       12.412181   3.34517544e-05     -78.2759653   3.47484275e-05     -76.4364003      0.998883394      12.3979068
8.38                 0.998773241      11.7111558   3.40506506e-05     -78.9778687   3.53624377e-05     -77.1175387      0.998941606      11.6964059
8.384                0.998840523      11.0122208   3.46601894e-05     -79.6775415   3.59869722e-05     -77.7968771      0.999000686      10.9969982
8.388                0.998908843      10.3153423   3.52805784e-05     -80.3750184   3.66222352e-05     -78.4744465      0.999060553      10.2996507
8.392                0.998978109      9.62048761   3.59120299e-05     -81.0703337   3.72684348e-05     -79.1502772      0.999121126      9.60433088
8.396                0.999048231      8.92762448   3.65547608e-05      -81.763521   3.79257839e-05     -79.8243986      0.999182327      8.91100723
8.4                  0.999119123      8.23672148   3.72089924e-05     -82.4546134   3.85945001e-05     -80.4968398      0.999244077       8.2196487
8.404                0.999190697       7.5477478   3.78749513e-05     -83.1436435   3.92748055e-05     -81.1676289      0.999306302      7.53022491
8.408                0.999262867      6.86067328   3.85528686e-05     -83.8306431    3.9966927e-05     -81.8367934      0.999368926      6.84270611
8.412                0.999335551      6.17546838   3.92429808e-05     -84.5156438   4.06710967e-05     -82.5043602      0.999431876      6.15706318
8.416                0.999408665      5.49210416   3.99455292e-05     -85.1986763   4.13875515e-05     -83.1703555       0.99949508      5.47326758
8.42                 0.999482128       4.8105523   4.06607607e-05     -85.8797711   4.21165335e-05     -83.8348051      0.999558469      4.79129134
8.424                0.999555861      4.13078504   4.13889275e-05     -86.5589579   4.28582902e-05     -84.4977339      0.999621973      4.11110707
8.428                0.999629787      3.45277519   4.21302875e-05     -87.2362661   4.36130745e-05     -85.1591665      0.999685527       3.4326879
8.432                0.999703827      2.77649612    4.2885104e-05     -87.9117245   4.43811447e-05     -85.8191267      0.999749064      2.75600753
8.436                0.999777909      2.10192171   4.36536464e-05     -88.5853613   4.51627651e-05     -86.4776379      0.999812522      2.08104014
8.44                 0.999851959      1.42902638     4.443619e-05     -89.2572044   4.59582056e-05      -87.134723      0.999875837      1.40776045
8.444                0.999925904     0.757785073   4.52330163e-05     -89.9272812    4.6767742e-05     -87.7904043       0.99993895     0.736143644
8.448                0.999999676    0.0881731988   4.60444128e-05     -90.5956186   4.75916563e-05     -88.4447034                1    0.0661653994
8.452                          1    -0.579833336   4.68706738e-05      -91.262243   4.84302369e-05     -89.0976419                1    -0.602198149
8.456                          1     -1.24625816   4.77120999e-05     -91.9271803   4.92837784e-05     -89.7492404                1     -1.26897041
8.46                           1     -1.91112444   4.85689985e-05     -92.5904561    5.0152582e-05     -90.3995192                1     -1.93417436
8.464                          1      -2.5744549   4.94416841e-05     -93.2520955   5.10369557e-05     -91.0484983                1     -2.59783254
8.468                          1     -3.23627184   5.03304781e-05     -93.9121232   5.19372143e-05     -91.6961971                1     -3.25996709
8.472                          1     -3.89659712   5.12357093e-05     -94.5705633   5.28536797e-05     -92.3426344                1     -3.92059971
8.476                          1      -4.5554522   5.21577136e-05     -95.2274399   5.37866811e-05     -92.9878288                1     -4.57975175
8.48                           1     -5.21285815   5.30968351e-05     -95.8827762   5.47365549e-05     -93.6317985                1     -5.23744416
8.484                          1     -5.86883565   5.40534251e-05     -96.5365954   5.57036453e-05     -94.2745611                1     -5.89369751
8.488                          1     -6.52340499   5.50278434e-05     -97.1889201   5.66883041e-05     -94.9161338                1     -6.54853203
8.492                          1     -7.17658609   5.60204578e-05     -97.8397726   5.76908912e-05     -95.5565335                1     -7.20196758
8.496                          1     -7.82839855   5.70316444e-05     -98.4891747   5.87117746e-05     -96.1957767                1     -7.85402369
8.5                            1     -8.47886157   5.80617882e-05     -99.1371481   5.97513305e-05     -96.8338794                1     -8.50471957
8.504                          1     -9.12799406   5.91112829e-05     -99.7837139    6.0809944e-05     -97.4708573                1     -9.15407409
8.508                          1     -9.77581458   6.01805311e-05     -100.428893   6.18880087e-05     -98.1067258                1     -9.80210581
8.512                          1     -10.4223414   6.12699451e-05     -101.072706   6.29859273e-05     -98.7414997                1      -10.448833
8.516                          1     -11.0675924   6.23799463e-05     -101.715172   6.41041117e-05     -99.3751938                1     -11.0942736
8.52                           1     -11.7115853   6.35109662e-05     -102.356313   6.52429833e-05     -100.007822                1     -11.7384454
8.524                          1     -12.3543373   6.46634461e-05     -102.996146   6.64029731e-05     -100.639399                1     -12.3813657
8.528                          1     -12.9958657   6.58378377e-05     -103.634692   6.75845221e-05     -101.269937                1     -13.0230517
8.532                          1     -13.6361871   6.70346033e-05     -104.271969   6.87880813e-05      -101.89945                1     -13.6635203
8.536                          1     -14.2753181   6.82542157e-05     -104.907996   7.00141124e-05      -102.52795                1     -14.3027881
8.54                           1     -14.9132749   6.94971592e-05     -105.542791   7.12630875e-05     -103.155451                1     -14.9408715
8.544                          1     -15.5500736   7.07639291e-05     -106.176373     7.253549e-05     -103.781964                1     -15.5777867
8.548                          1       -16.18573   7.20550326e-05     -106.808758   7.38318141e-05     -104.407501                1     -16.2135496
8.552                          1     -16.8202596   7.33709888e-05     -107.439964   7.51525659e-05     -105.032074                1     -16.8481758
8.556                          1     -17.4536778    7.4712329e-05     -108.070009   7.64982631e-05     -105.655694                1      -17.481681
8.56                           1     -18.0859995   7.60795971e-05     -108.698909   7.78694355e-05     -106.278371                1     -18.1140803
8.564                          1     -18.7172398   7.74733501e-05     -109.326681   7.92666254e-05     -106.900116                1     -18.7453889
8.568                          1     -19.3474133    7.8894158e-05     -109.953342   8.06903876e-05      -107.52094                1     -19.3756217
8.572                          1     -19.9765345   8.03426045e-05     -110.578907   8.21412903e-05     -108.140852                1     -20.0047933
8.576                          1     -20.6046176   8.18192873e-05     -111.203392   8.36199146e-05     -108.759861                1     -20.6329184
8.58                           1     -21.2316769   8.33248184e-05     -111.826814   8.51268558e-05     -109.377978                1     -21.2600112
8.584                          1     -21.8577262   8.48598243e-05     -112.449187   8.66627229e-05      -109.99521                1      -21.886086
8.588                          1     -22.4827792    8.6424947e-05     -113.070527   8.82281393e-05     -110.611567                1     -22.5111568
8.592                          1     -23.1068497   8.80208434e-05     -113.690849   8.98237434e-05     -111.227056                1     -23.1352374
8.596                          1      -23.729951   8.96481869e-05     -114.310167   9.14501885e-05     -111.841685                1     -23.7583416
8.6                            1     -24.3520963   9.13076667e-05     -114.928496   9.31081436e-05     -112.455463                1     -24.3804829
8.604                          1     -24.9732989   9.29999891e-05     -115.545851   9.47982935e-05     -113.068395                1     -25.0016749
8.608                          1     -25.5935718   9.47258773e-05     -116.162246   9.65213392e-05      -113.68049                1     -25.6219307
8.612                          1     -26.2129277   9.64860724e-05     -116.777694   9.82779987e-05     -114.291753                1     -26.2412637
8.616                          1     -26.8313794   9.82813334e-05      -117.39221   0.000100069007      -114.90219                1     -26.8596867
8.62                           1     -27.4489396   0.000100112438     -118.005807   0.000101895116     -115.511807                1     -27.4772129
8.624                          1     -28.0656207   0.000101980183     -118.618499   0.000103757098      -116.12061                1     -28.0938549
8.628                          1      -28.681435   0.000103885385     -119.230299    0.00010565574     -116.728604                1     -28.7096255
8.632                          1     -29.2963948    0.00010582888      -119.84122   0.000107591851     -117.335792                1     -29.3245374
8.636                          1     -29.9105124   0.000107811526     -120.451275   0.000109566258     -117.942179                1     -29.9386031
8.64                           1     -30.5237996   0.000109834201     -121.060477   0.000111579808     -118.547769                1     -30.5518349
8.644                          1     -31.1362686   0.000111897805     -121.668838   0.000113633368     -119.152565                1     -31.1642452
8.648                          1     -31.7479311   0.000114003262     -122.276371   0.000115727828     -119.756569                1     -31.7758463
8.652                          1      -32.358799   0.000116151516     -122.883089   0.000117864096     -120.359783                1     -32.3866503
8.656                          1      -32.968884   0.000118343538     -123.489004   0.000120043104     -120.962211                1     -32.9966694
8.66                           1     -33.5781976   0.000120580321     -124.094127   0.000122265807     -121.563851                1     -33.6059155
8.664                          1     -34.1867515   0.000122862883     -124.698472   0.000124533179     -122.164706                1     -34.2144005
8.668                          1     -34.7945572    0.00012519227     -125.302049   0.000126846223     -122.764775                1     -34.8221365
8.672                          1      -35.401626   0.000127569552      -125.90487   0.000129205961     -123.364056                1     -35.4291352
8.676                          1     -36.0079694   0.000129995826     -126.506947   0.000131613443      -123.96255                1     -36.0354083
8.68                           1     -36.6135987   0.000132472219     -127.108292   0.000134069742     -124.560254                1     -36.6409677
8.684                          1     -37.2185251   0.000134999885     -127.708917   0.000136575958     -125.157165                1      -37.245825
8.688                          1     -37.8227599   0.000137580008     -128.308831   0.000139133215     -125.753278                1     -37.8499917
8.692                          1     -38.4263143   0.000140213801     -128.908047   0.000141742666     -126.348591                1     -38.4534796
8.696                          1     -39.0291993    0.00014290251     -129.506576   0.000144405489     -126.943097                1     -39.0563001
8.7                            1     -39.6314262   0.000145647412     -130.104429   0.000147122893      -127.53679                1     -39.6584648
8.704                          1     -40.2330059   0.000148449818     -130.701616   0.000149896111     -128.129661                1     -40.2599851
8.708                          1     -40.8339497    0.00015131107      -131.29815   0.000152726408     -128.721704                1     -40.8608724
8.712                          1     -41.4342684   0.000154232547      -131.89404   0.000155615077     -129.312907                1     -41.4611384
8.716                          1     -42.0339731   0.000157215664     -132.489297   0.000158563439      -129.90326                1     -42.0607942
8.72                           1     -42.6330748   0.000160261872     -133.083933   0.000161572848      -130.49275                1     -42.6598514
8.724                          1     -43.2315845   0.000163372659     -133.677957   0.000164644687     -131.081362                1     -43.2583213
8.728                          1     -43.8295132   0.000166549554     -134.271381   0.000167780368     -131.669082                1     -43.8562153
8.732                          1     -44.4268719   0.000169794123     -134.864214   0.000170981337      -132.25589                1     -44.4535447
8.736                          1     -45.0236715   0.000173107977     -135.456469   0.000174249068     -132.841767                1     -45.0503208
8.74                           1      -45.619923   0.000176492766     -136.048154   0.000177585067     -133.426691                1     -45.6465552
8.744                          1     -46.2156374   0.000179950185     -136.639281   0.000180990872     -134.010639                1      -46.242259
8.748                          1     -46.8108257   0.000183481974      -137.22986   0.000184468049     -134.593583                1     -46.8374436
8.752                          1     -47.4054989   0.000187089918     -137.819901   0.000188018197     -135.175493                1     -47.4321204
8.756                          1      -47.999668   0.000190775851     -138.409416   0.000191642942     -135.756336                1     -48.0263008
8.76                           1      -48.593344   0.000194541654     -138.998414   0.000195343941     -136.336076                1     -48.6199962
8.764                          1     -49.1865382    0.00019838926     -139.586905   0.000199122876     -136.914674                1     -49.2132179
8.768                          1     -49.7792614   0.000202320652     -140.174901   0.000202981455     -137.492083                1     -49.8059774
8.772                          1     -50.3715248   0.000206337869     -140.762411   0.000206921412     -138.068256                1      -50.398286
8.776                          1     -50.9633397   0.000210443001     -141.349447   0.000210944499     -138.643138                1     -50.9901554
8.78                           1     -51.5547171   0.000214638199     -141.936018   0.000215052486     -139.216669                1     -51.5815968