! TOUCHSTONE file generated by CST MICROWAVE STUDIO
! Date and time: Sat Oct  4 18:51:12 2025
! Project name: Dise˝oBPF.cst
! Parameters = {L=20; Lc1=19.0311; Lc2=21.4361; a=19.05; b=9.525; t=1.5; w1=11.7375; w2=8.46096; w3=7.78789}
! Header version: 2024
! Port assignment regex: !\s*Touchstone port\s*([0-9]+)\s*=\s*(CST MWS port|CST DES external port|CST DES block port)\s*(.+)\s* \(\"(.*)\"\)(\s*mode\s*([0-9]+))?.*
! Touchstone port assignment:
! Touchstone port 1 = CST MWS port 1 ("")
! Touchstone port 2 = CST MWS port 2 ("")
! S-Parameters are not renormalized. Unphysical impedance of 498.97 will be written to the file.
# GHz S MA R 498.97
8                              1      97.3145769   3.46602227e-06      7.30240331   3.46493994e-06        7.304053      0.999991881      97.2844477
8.004                          1      96.0646736   3.53769568e-06       6.5857733   3.56236769e-06      6.28005841                1       96.034923
8.008                          1      94.8296409   3.61242346e-06        5.834277   3.66036084e-06      5.26839724                1      94.8002429
8.012                          1      93.6090556   3.69023976e-06      5.04946977   3.75894186e-06      4.26786739                1      93.5799863
8.016                          1      92.4025088   3.77117912e-06      4.23295796   3.85813484e-06       3.2773883                1      92.3737461
8.02                           1      91.2096053    3.8552763e-06      3.38638671   3.95796537e-06      2.29598724                1      91.1811289
8.024                          1      90.0299634     3.942566e-06      2.51142851   4.05846051e-06      1.32278748                1      90.0017546
8.028                          1      88.8632143   4.03308262e-06      1.60977242   4.15964871e-06     0.356997916                1      88.8352561
8.032                          1      87.7090018      4.12686e-06     0.683114138   4.26155977e-06    -0.602095886                1      87.6812783
8.036                          1      86.5669814    4.2239312e-06    -0.266853259   4.36422478e-06     -1.55513958                1      86.5394783
8.04                           1      85.4368207   4.32432828e-06     -1.23844767   4.46767611e-06     -2.50271691                1      85.4095248
8.044                          1      84.3181982   4.42808204e-06     -2.23000559   4.57194735e-06     -3.44535581                1      84.2910974
8.048                          1      83.2108033   4.53522186e-06     -3.23988894    4.6770733e-06     -4.38353369                1      83.1838865
8.052                          1      82.1143357   4.64577552e-06     -4.26649113   4.78308995e-06      -5.3176822                1       82.087593
8.056                          1      81.0285054   4.75976901e-06     -5.30824232   4.89003446e-06     -6.24819141                1      81.0019275
8.06                           1       79.953032   4.87722639e-06     -6.36361409   4.99794512e-06     -7.17541355                1      79.9266105
8.064                          1      78.8876442   4.99816972e-06      -7.4311233   5.10686137e-06     -8.09966627                1      78.8613717
8.068                          1        77.83208   5.12261891e-06     -8.50933533   5.21682377e-06     -9.02123568                1      77.8059495
8.072                          1      76.7860861   5.25059168e-06     -9.59686684   5.32787399e-06     -9.94037896                1      76.7600913
8.076                          1      75.7494172   5.38210353e-06     -10.6923877    5.4400548e-06     -10.8573267                1      75.7235525
8.08                           1      74.7218364   5.51716767e-06     -11.7946228   5.55341008e-06     -11.7722853                1      74.6960966
8.084                          1      73.7031144   5.65579508e-06     -12.9023529   5.66798478e-06     -12.6854385                1       73.677495
8.088                          1      72.6930293   5.79799451e-06     -14.0144153   5.78382497e-06     -13.5969495                1      72.6675262
8.092                          1      71.6913667   5.94377252e-06     -15.1297043   5.90097777e-06     -14.5069625                1      71.6659761
8.096                          1      70.6979188   6.09313356e-06     -16.2471712   6.01949139e-06     -15.4156038                1      70.6726374
8.1                            1      69.7124847   6.24608006e-06     -17.3658233   6.13941512e-06     -16.3229837                1      69.6873095
8.104                          1      68.7348698   6.40261251e-06     -18.4847239   6.26079934e-06     -17.2291975                1      68.7097982
8.108                          1      67.7648859   6.56272963e-06     -19.6029912   6.38369546e-06     -18.1343263                1      67.7399154
8.112                          1      66.8023504   6.72642845e-06     -20.7197971   6.50815601e-06     -19.0384385                1      66.7774791
8.116                          1       65.847087   6.89370447e-06      -21.834366   6.63423457e-06     -19.9415906                1      65.8223129
8.12                           1      64.8989244   7.06455185e-06     -22.9459734   6.76198579e-06     -20.8438278                1       64.874246
8.124                          1      63.9576972   7.23896352e-06     -24.0539444   6.89146541e-06     -21.7451855                1       63.933113
8.128                          1      63.0232446   7.41693139e-06      -25.157652   7.02273024e-06     -22.6456893                1      62.9987534
8.132                          1      62.0954113    7.5984465e-06     -26.2565158   7.15583815e-06     -23.5453563                1      62.0710119
8.136                          1      61.1740464   7.78349922e-06     -27.3499997   7.29084812e-06     -24.4441954                1       61.149738
8.14                           1      60.2590038    7.9720794e-06     -28.4376107   7.42782019e-06     -25.3422082      0.999998741      60.2347855
8.144                0.999997254      59.3501418   8.16417657e-06     -29.5188968    7.5668155e-06     -26.2393894      0.999994669      59.3260129
8.148                0.999992983       58.447323   8.35978012e-06     -30.5934454   7.70789627e-06     -27.1357278       0.99999076       58.423283
8.152                0.999988905      57.5504143   8.55887945e-06     -31.6608816   7.85112584e-06      -28.031206      0.999987021      57.5264626
8.156                0.999985023      56.6592864   8.76146416e-06     -32.7208663   7.99656863e-06     -28.9258017      0.999983458      56.6354226
8.16                 0.999981341      55.7738139   8.96752419e-06     -33.7730945   8.14429017e-06      -29.819488      0.999980074      55.7500375
8.164                0.999977863      54.8938751   9.17705003e-06      -34.817294   8.29435712e-06     -30.7122337      0.999976872       54.870186
8.168                0.999974589       54.019352    9.3900328e-06     -35.8532231   8.44683726e-06     -31.6040036      0.999973854      53.9957498
8.172                0.999971521        53.15013   9.60646446e-06     -36.8806696    8.6017995e-06     -32.4947594       0.99997102      53.1266145
8.176                0.999968658      52.2860977   9.82633792e-06      -37.899449    8.7593139e-06     -33.3844599      0.999968372      52.2626688
8.18                    0.999966      51.4271473   1.00496471e-05     -38.9094029   8.91945168e-06     -34.2730611      0.999965909      51.4038046
8.184                0.999963544      50.5731737   1.02763873e-05     -39.9103979   9.08228523e-06     -35.1605169      0.999963629      50.5499172
8.188                0.999961288       49.724075   1.05065549e-05     -40.9023238   9.24788812e-06     -36.0467796       0.99996153      49.7009046
8.192                 0.99995923      48.8797522   1.07401479e-05     -41.8850922   9.41633513e-06     -36.9317999      0.999959611      48.8566677
8.196                0.999957365      48.0401092   1.09771656e-05     -42.8586357   9.58770225e-06     -37.8155272      0.999957869      48.0171104
8.2                  0.999955691      47.2050523   1.12176091e-05     -43.8229062   9.76206671e-06     -38.6979105        0.9999563      47.1821392
8.204                0.999954203      46.3744907    1.1461481e-05     -44.7778739   9.93950702e-06     -39.5788981      0.999954901      46.3516631
8.208                0.999952897       45.548336   1.17087859e-05     -45.7235259    1.0120103e-05      -40.458438      0.999953668      45.5255938
8.212                0.999951768      44.7265024   1.19595298e-05     -46.6598653   1.03039356e-05     -41.3364788      0.999952597      44.7038454
8.216                 0.99995081      43.9089061   1.22137211e-05     -47.5869103   1.04910874e-05     -42.2129691      0.999951683      43.8863341
8.22                 0.999950018       43.095466   1.24713695e-05     -48.5046927   1.06816421e-05     -43.0878585      0.999950922      43.0729789
8.224                0.999949387      42.2861029   1.27324872e-05     -49.4132575    1.0875685e-05     -43.9610976      0.999950308      42.2637004
8.228                0.999948912      41.4807399   1.29970881e-05     -50.3126613   1.10733027e-05     -44.8326382      0.999949838      41.4584218
8.232                0.999948586      40.6793021   1.32651882e-05     -51.2029722   1.12745832e-05     -45.7024338      0.999949505      40.6570682
8.236                0.999948403      39.8817166   1.35368056e-05     -52.0842684   1.14796163e-05     -46.5704398      0.999949304      39.8595664
8.24                 0.999948358      39.0879122   1.38119603e-05     -52.9566376   1.16884932e-05     -47.4366137      0.999949231      39.0658457
8.244                0.999948445      38.2978201   1.40906745e-05     -53.8201761   1.19013066e-05     -48.3009154      0.999949279      38.2758367
8.248                0.999948657      37.5113727   1.43729726e-05     -54.6749884   1.21181511e-05     -49.1633076      0.999949444      37.4894722
8.252                0.999948988      36.7285044   1.46588809e-05     -55.5211862    1.2339123e-05      -50.023756      0.999949719      36.7066864
8.256                0.999949433      35.9491515    1.4948428e-05     -56.3588878   1.25643202e-05     -50.8822296        0.9999501      35.9274155
8.26                 0.999949986      35.1732516   1.52416446e-05     -57.1882177   1.27938427e-05     -51.7387011      0.999950581      35.1515971
8.264                 0.99995064      34.4007439   1.55385634e-05     -58.0093058   1.30277923e-05      -52.593147      0.999951157      34.3791706
8.268                0.999951389      33.6315693   1.58392192e-05      -58.822287    1.3266273e-05     -53.4455484      0.999951821      33.6100766
8.272                0.999952228      32.8656702   1.61436492e-05     -59.6273005   1.35093907e-05     -54.2958909       0.99995257      32.8442575
8.276                0.999953151      32.1029901   1.64518926e-05     -60.4244895   1.37572537e-05     -55.1441653      0.999953397       32.081657
8.28                 0.999954152      31.3434743   1.67639905e-05     -61.2140008   1.40099724e-05     -55.9903678      0.999954297        31.32222
8.284                0.999955226      30.5870692   1.70799864e-05     -61.9959839     1.426766e-05     -56.8345009      0.999955266      30.5658931
8.288                0.999956366      29.8337225   1.73999258e-05     -62.7705914    1.4530432e-05     -57.6765734      0.999956298       29.812624
8.292                0.999957568      29.0833832   1.77238565e-05     -63.5379777   1.47984066e-05     -58.5166013      0.999957389      29.0623616
8.296                0.999958827      28.3360015   1.80518281e-05     -64.2982995   1.50717048e-05     -59.3546087      0.999958533      28.3150561
8.3                  0.999960137      27.5915288   1.83838926e-05     -65.0517147   1.53504509e-05      -60.190628      0.999959726      27.5706589
8.304                0.999961492      26.8499177    1.8720104e-05     -65.7983829   1.56347721e-05     -61.0247013      0.999960963      26.8291224
8.308                0.999962889      26.1111219   1.90605186e-05     -66.5384643    1.5924799e-05      -61.856881       0.99996224      26.0904004
8.312                0.999964322      25.3750959   1.94051945e-05     -67.2721199   1.62206658e-05     -62.6872313      0.999963552      25.3544475
8.316                0.999965787      24.6417956   1.97541923e-05     -67.9995112   1.65225105e-05     -63.5158294      0.999964895      24.6212194
8.32                  0.99996728      23.9111778   2.01075745e-05        -68.7208   1.68304749e-05     -64.3427669      0.999966265      23.8906729
8.324                0.999968795      23.1832001   2.04654059e-05     -69.4361479   1.71447052e-05     -65.1681519      0.999967657      23.1627656
8.328                0.999970328      22.4578213   2.08277535e-05     -70.1457164   1.74653521e-05      -65.992111      0.999969069      22.4374563
8.332                0.999971876       21.735001   2.11946864e-05     -70.8496667   1.77925709e-05     -66.8147921      0.999970496      21.7147045
8.336                0.999973435      21.0146996   2.15662759e-05     -71.5481593   1.81265217e-05     -67.6363671      0.999971934      20.9944707
8.34                    0.999975      20.2968785   2.19425957e-05     -72.2413541   1.84673702e-05     -68.4570359       0.99997338      20.2767162
8.344                0.999976568      19.5814999   2.23237215e-05       -72.92941   1.88152869e-05     -69.2770303      0.999974831      19.5614032
8.348                0.999978136      18.8685268   2.27097315e-05     -73.6124849   1.91704483e-05     -70.0966202      0.999976283      18.8484946
8.352                  0.9999797       18.157923   2.31007061e-05     -74.2907359   1.95330362e-05      -70.916119      0.999977734      18.1379543
8.356                0.999981257      17.4496531   2.34967281e-05     -74.9643185   1.99032376e-05      -71.735892      0.999979179      17.4297468
8.36                 0.999982804      16.7436822   2.38978826e-05     -75.6333869   2.02812448e-05     -72.5563663      0.999980617      16.7238374
8.364                0.999984338      16.0399765   2.43042572e-05     -76.2980942   2.06672541e-05      -73.378042      0.999982045      16.0201919
8.368                0.999985855      15.3385027   2.47159419e-05     -76.9585916   2.10614648e-05     -74.2015074       0.99998346      15.3187773
8.372                0.999987355       14.639228   2.51330293e-05     -77.6150289   2.14640768e-05      -75.027457      0.999984859      14.6195607
8.376                0.999988833      13.9421207   2.55556144e-05     -78.2675544   2.18752872e-05     -75.8567151       0.99998624      13.9225103
8.38                 0.999990287      13.2471493   2.59837949e-05     -78.9163143   2.22952844e-05     -76.6902638      0.999987601      13.2275947
8.384                0.999991716      12.5542831   2.64176711e-05     -79.5614534   2.27242402e-05     -77.5292803       0.99998894      12.5347832
8.388                0.999993117      11.8634921    2.6857346e-05     -80.2031145   2.31622963e-05     -78.3751825      0.999990255      11.8440457
8.392                0.999994488      11.1747468   2.73029256e-05     -80.8414386   2.36095446e-05     -79.2296888      0.999991544      11.1553527
8.396                0.999995827      10.4880181   2.77545185e-05     -81.4765646   2.40659959e-05     -80.0948916      0.999992805      10.4686751
8.4                  0.999997132      9.80327765   2.82122363e-05     -82.1086299   2.45315331e-05      -80.973353      0.999994036      9.78398468
8.404                0.999998402      9.12049763   2.86761936e-05     -82.7377695    2.5005837e-05     -81.8682217      0.999995236      9.10125345
8.408                0.999999636      8.43965067   2.91465079e-05     -83.3641166   2.54882712e-05     -82.7833777      0.999996404      8.42045408
8.412                          1      7.76070991   2.96233002e-05     -83.9878025   2.59777009e-05     -83.7235987      0.999997538      7.74155972
8.416                          1      7.08364901   3.01066944e-05     -84.6089562   2.64722062e-05      -84.694734      0.999998637      7.06454401
8.42                           1      6.40844206   3.05968179e-05     -85.2277049   2.69686277e-05     -85.7038338        0.9999997      6.38938106
8.424                          1      5.73506366   3.10938016e-05     -85.8441735   2.74618489e-05     -86.7591118                1      5.71604546
8.428                          1      5.06348883   3.15977796e-05     -86.4584852   2.79436842e-05     -87.8694461                1      5.04451222
8.432                          1      4.39369302   3.21088899e-05     -87.0707607   2.84012329e-05     -89.0427837                1      4.37475681
8.436                          1      3.72565213   3.26272743e-05     -87.6811188   2.88146956e-05     -90.2821429                1      3.70675511
8.44                           1      3.05934245   3.31530782e-05     -88.2896763   2.91552683e-05       -91.57686                1      3.04048342
8.444                          1      2.39474068   3.36864511e-05     -88.8965478   2.93855391e-05     -92.8859456                1      2.37591843
8.448                          1      1.73182389   3.42275466e-05     -89.5018458   2.94684924e-05     -94.1133129                1      1.71303724
8.452                          1      1.07056955   3.47765225e-05     -90.1056806   2.93940624e-05      -95.089929                1      1.05181731
8.456                          1     0.410955474   3.53335409e-05     -90.7081606   2.92207438e-05     -95.6091181                1     0.392236459
8.46                           1    -0.247040144   3.58987686e-05      -91.309392   2.90910324e-05     -95.5580315                1    -0.265727116
8.464                          1    -0.903438781   3.64723769e-05     -91.9094787   2.91657744e-05     -95.0574006                1    -0.922094884
8.468                          1     -1.55826157   3.70545418e-05     -92.5085229   2.95200388e-05     -94.4116472                1     -1.57688797
8.472                          1     -2.21152933   3.76454445e-05     -93.1066242   3.01183983e-05     -93.8975957                1     -2.23012719
8.476                          1     -2.86326254   3.82452711e-05     -93.7038806   3.08754523e-05     -93.6399548                1     -2.88183301
8.48                           1     -3.51348138   3.88542131e-05     -94.3003874   3.17143075e-05     -93.6399728                1     -3.53202561
8.484                          1     -4.16220575   3.94724675e-05     -94.8962383   3.25857549e-05     -93.8473251                1     -4.18072486
8.488                          1     -4.80945523   4.01002368e-05     -95.4915246   3.34641545e-05     -94.2054369                1     -4.82795036
8.492                          1     -5.45524913   4.07377296e-05     -96.0863355   3.43384812e-05      -94.668006                1     -5.47372138
8.496                          1     -6.09960649   4.13851602e-05     -96.6807581   3.52054605e-05     -95.2013308                1     -6.11805697
8.5                            1     -6.74254605   4.20427496e-05     -97.2748774   3.60655022e-05     -95.7820676                1     -6.76097586
8.504                          1     -7.38408634   4.27107249e-05     -97.8687761   3.69205583e-05     -96.3943579                1     -7.40249655
8.508                          1     -8.02424561     4.338932e-05      -98.462535   3.77730753e-05     -97.0274791                1     -8.04263728
8.512                          1     -8.66304185   4.40787757e-05     -99.0562326    3.8625515e-05      -97.674162                1     -8.68141605
8.516                          1     -9.30049283   4.47793399e-05     -99.6499451   3.94801586e-05     -98.3294498                1      -9.3188506
8.52                           1     -9.93661609   4.54912682e-05     -100.243747   4.03390434e-05     -98.9899385                1     -9.95495846
8.524                          1     -10.5714289   4.62148233e-05     -100.837709   4.12039615e-05     -99.6532744                1     -10.5897569
8.528                          1     -11.2049485   4.69502764e-05     -101.431903   4.20764816e-05     -100.317821                1      -11.223263
8.532                          1     -11.8371915   4.76979064e-05     -102.026394   4.29579798e-05     -100.982435                1     -11.8554937
8.536                          1     -12.4681749    4.8458001e-05      -102.62125   4.38496703e-05     -101.646318                1     -12.4864656
8.54                           1     -13.0979148   4.92308565e-05     -103.216532   4.47526328e-05     -102.308912                1     -13.1161951
8.544                          1     -13.7264278   5.00167782e-05     -103.812301   4.56678368e-05     -102.969832                1     -13.7446985
8.548                          1     -14.3537298   5.08160809e-05     -104.408615   4.65961621e-05     -103.628811                1     -14.3719919
8.552                          1     -14.9798367    5.1629089e-05     -105.005532    4.7538415e-05     -104.285675                1     -14.9980911
8.556                          1     -15.6047643   5.24561369e-05     -105.603104   4.84953425e-05     -104.940309                1     -15.6230119
8.56                           1     -16.2285282   5.32975694e-05     -106.201383   4.94676438e-05     -105.592646                1     -16.2467697
8.564                          1     -16.8511436   5.41537419e-05     -106.800418   5.04559797e-05     -106.242651                1       -16.86938
8.568                          1     -17.4726258   5.50250209e-05     -107.400255     5.146098e-05     -106.890315                1     -17.4908579
8.572                          1     -18.0929898   5.59117844e-05     -108.000939   5.24832504e-05     -107.535646                1     -18.1112185
8.576                          1     -18.7122506   5.68144221e-05     -108.602511   5.35233774e-05     -108.178664                1     -18.7304766
8.58                           1     -19.3304229   5.77333358e-05      -109.20501   5.45819334e-05       -108.8194                1      -19.348647
8.584                          1     -19.9475212   5.86689402e-05     -109.808474   5.56594796e-05     -109.457889                1     -19.9657442
8.588                          1     -20.5635602   5.96216627e-05     -110.412934     5.675657e-05     -110.094174                1     -20.5817828
8.592                          1      -21.178554   6.05919443e-05     -111.018424   5.78737536e-05     -110.728298                1     -21.1967769
8.596                          1     -21.7925169   6.15802397e-05     -111.624972    5.9011577e-05     -111.360308                1     -21.8107408
8.6                            1     -22.4054629   6.25870181e-05     -112.232603   6.01705863e-05     -111.990251                1     -22.4236885
8.604                          1      -23.017406   6.36127633e-05     -112.841342   6.13513288e-05     -112.618177                1      -23.035634
8.608                          1       -23.62836   6.46579745e-05     -113.451208   6.25543546e-05     -113.244132                1      -23.646591
8.612                          1     -24.2383385   6.57231663e-05      -114.06222   6.37802181e-05     -113.868167                1     -24.2565732
8.616                          1     -24.8473553     6.680887e-05     -114.674391   6.50294791e-05     -114.490327                1     -24.8655942
8.62                           1     -25.4554237    6.7915633e-05     -115.287735   6.63027038e-05     -115.110662                1     -25.4736674
8.624                          1     -26.0625571   6.90440203e-05     -115.902261   6.76004661e-05     -115.729217                1     -26.0808062
8.628                          1     -26.6687688   7.01946145e-05     -116.517974   6.89233481e-05     -116.346038                1     -26.6870238
8.632                          1     -27.2740719   7.13680164e-05     -117.134878   7.02719414e-05     -116.961171                1     -27.2923334
8.636                          1     -27.8784796   7.25648457e-05     -117.752973   7.16468477e-05      -117.57466                1      -27.896748
8.64                           1     -28.4820048   7.37857414e-05     -118.372257   7.30486795e-05     -118.186547                1     -28.5002806
8.644                          1     -29.0846604   7.50313622e-05     -118.992723   7.44780608e-05     -118.796876                1      -29.102944
8.648                          1     -29.6864591   7.63023875e-05     -119.614364   7.59356282e-05     -119.405687                1     -29.7047511
8.652                          1     -30.2874138   7.75995177e-05     -120.237166   7.74220308e-05     -120.013022                1     -30.3057145
8.656                0.999999381     -30.8875371   7.89234746e-05     -120.861115   7.89379317e-05      -120.61892      0.999999412     -30.9058469
8.66                 0.999998646     -31.4868414   8.02750024e-05     -121.486193   8.04840079e-05      -121.22342      0.999998794     -31.5051607
8.664                0.999997912     -32.0853393    8.1654868e-05     -122.112379   8.20609516e-05      -121.82656      0.999998178     -32.1036685
8.668                0.999997181     -32.6830433   8.30638618e-05     -122.739648   8.36694701e-05     -122.428377      0.999997565     -32.7013826
8.672                0.999996454     -33.2799656    8.4502798e-05     -123.367973   8.53102871e-05     -123.028907      0.999996956     -33.2983154
8.676                0.999995733     -33.8761186   8.59725155e-05     -123.997323   8.69841428e-05     -123.628187      0.999996353     -33.8944792
8.68                 0.999995019     -34.4715145   8.74738785e-05     -124.627664    8.8691795e-05     -124.226251      0.999995755      -34.489886
8.684                0.999994312     -35.0661653   8.90077771e-05      -125.25896   9.04340191e-05     -124.823134      0.999995166     -35.0845482
8.688                0.999993615     -35.6600833   9.05751275e-05     -125.891171   9.22116094e-05     -125.418868      0.999994585     -35.6784776
8.692                0.999992928     -36.2532805   9.21768734e-05     -126.524254   9.40253792e-05     -126.013487      0.999994013     -36.2716865
8.696                0.999992252     -36.8457688    9.3813986e-05     -127.158163   9.58761618e-05     -126.607023      0.999993452     -36.8641867
8.7                  0.999991589     -37.4375602    9.5487465e-05     -127.792849    9.7764811e-05     -127.199507      0.999992903     -37.4559901
8.704                0.999990939     -38.0286666   9.71983389e-05      -128.42826   9.96922018e-05     -127.790971      0.999992367     -38.0471087
8.708                0.999990303     -38.6190998   9.89476658e-05     -129.064342   0.000101659231     -128.381443      0.999991844     -38.6375543
8.712                0.999989684     -39.2088717   0.000100736534     -129.701038   0.000103666818     -128.970955      0.999991336     -39.2273386
8.716                0.999989081     -39.7979941   0.000102566063     -130.338287   0.000105715905     -129.559536      0.999990843     -39.8164734
8.72                 0.999988495     -40.3864786   0.000104437404     -130.976028    0.00010780746     -130.147213      0.999990367     -40.4049704
8.724                0.999987929     -40.9743369   0.000106351739     -131.614194   0.000109942474     -130.734015      0.999989909     -40.9928413
8.728                0.999987381     -41.5615807   0.000108310283     -132.252718   0.000112121963     -131.319969      0.999989469     -41.5800978
8.732                0.999986855     -42.1482217   0.000110314287      -132.89153   0.000114346972     -131.905103      0.999989048     -42.1667513
8.736                0.999986349     -42.7342714   0.000112365032      -133.53056    0.00011661857     -132.489442      0.999988647     -42.7528136
8.74                 0.999985866     -43.3197415   0.000114463835     -134.169731   0.000118937856     -133.073014      0.999988267     -43.3382962
8.744                0.999985406     -43.9046434   0.000116612051      -134.80897   0.000121305958     -133.655843      0.999987909     -43.9232105
8.748                 0.99998497     -44.4889887   0.000118811065     -135.448197   0.000123724033     -134.237955      0.999987573     -44.5075682
8.752                0.999984559      -45.072789   0.000121062304     -136.087335   0.000126193267     -134.819374      0.999987261     -45.0913807
8.756                0.999984173     -45.6560557   0.000123367229     -136.726302   0.000128714881     -135.400125      0.999986972     -45.6746595
8.76                 0.999983813     -46.2388003    0.00012572734     -137.365016   0.000131290126     -135.980231      0.999986708     -46.2574161
8.764                0.999983481     -46.8210342   0.000128144172     -138.003396   0.000133920288     -136.559716      0.999986469     -46.8396619
8.768                0.999983176      -47.402769   0.000130619303     -138.641358   0.000136606686     -137.138604      0.999986257     -47.4214083
8.772                0.999982899     -47.9840161   0.000133154347     -139.278817   0.000139350676     -137.716915       0.99998607     -48.0026668
8.776                0.999982651     -48.5647869   0.000135750961     -139.915689    0.00014215365     -138.294674      0.999985911     -48.5834488
8.78                 0.999982433     -49.1450929   0.000138410839     -140.551889   0.000145017038     -138.871901       0.99998578     -49.1637657