! TOUCHSTONE file generated by CST MICROWAVE STUDIO
! Date and time: Sat Oct  4 19:51:33 2025
! Project name: Dise˝oBPF_conPerdidas.cst
! Parameters = {L=20; Lc1=18.773; Lc2=21.2156; a=19.05; b=9.525; t=1.5; w1=11.9246; w2=8.70252; w3=8.01241}
! Header version: 2024
! Port assignment regex: !\s*Touchstone port\s*([0-9]+)\s*=\s*(CST MWS port|CST DES external port|CST DES block port)\s*(.+)\s* \(\"(.*)\"\)(\s*mode\s*([0-9]+))?.*
! Touchstone port assignment:
! Touchstone port 1 = CST MWS port 1 ("")
! Touchstone port 2 = CST MWS port 2 ("")
! S-Parameters are not renormalized. Unphysical impedance of 610.34 will be written to the file.
# GHz S MA R 610.34
8                    0.995590597       96.344684   5.44646439e-06      5.90546221   5.44648845e-06       5.9056847      0.995588356      96.3513122
8.004                0.995721766      95.0775708   5.58733302e-06      4.54212273   5.58423855e-06      4.63824066      0.995720889       95.083846
8.008                0.995839475       93.826266   5.73044943e-06      3.20583807   5.72442296e-06      3.38547775      0.995839694      93.8322343
8.012                 0.99594499      92.5902628   5.87581621e-06      1.89514878   5.86705687e-06       2.1471153      0.995946074      92.5959661
8.016                0.996039473       91.369075   6.02343929e-06     0.608688998   6.01215658e-06     0.922867802      0.996041221      91.3745513
8.02                 0.996123984      90.1622365   6.17332776e-06    -0.654819566   6.15973948e-06    -0.287553564      0.996126223      90.1675199
8.024                0.996199495      88.9692997    6.3254937e-06     -1.89657331   6.30982411e-06     -1.48443959      0.996202075      88.9744213
8.028                0.996266893      87.7898353   6.47995195e-06     -3.11769216   6.46243015e-06     -2.66808188      0.996269687      87.7948229
8.032                0.996326987       86.623431   6.63671999e-06     -4.31922471   6.61757841e-06     -3.83877182      0.996329887      86.6283098
8.036                0.996380517      85.4696914    6.7958178e-06     -5.50215302   6.77529087e-06     -4.99679972      0.996383433      85.4744837
8.04                 0.996428159      84.3282363   6.95726771e-06     -6.66739711   6.93559068e-06     -6.14245401      0.996431015      84.3329623
8.044                0.996470529      83.1987009    7.1210943e-06     -7.81581926   7.09850216e-06      -7.2760206      0.996473262      83.2033785
8.048                0.996508186      82.0807346   7.28732431e-06     -8.94822787   7.26405079e-06      -8.3977823      0.996510746      82.0853798
8.052                0.996541643      80.9740004    7.4559865e-06     -10.0653812   7.43226328e-06     -9.50801835      0.996543989      80.9786273
8.056                0.996571363      79.8781746   7.62711161e-06     -11.1679908   7.60316751e-06      -10.607004      0.996573463      79.8827957
8.06                 0.996597769      78.7929459   7.80073227e-06     -12.2567246   7.77679254e-06     -11.6950102        0.9965996      78.7975721
8.064                0.996621246      77.7180149   7.97688292e-06     -13.3322101   7.95316867e-06     -12.7723032       0.99662279      77.7226558
8.068                0.996642141      76.6530937   8.15559979e-06     -14.3950369   8.13232738e-06     -13.8391445      0.996643387      76.6577575
8.072                 0.99666077      75.5979051   8.33692078e-06     -15.4457593   8.31430137e-06     -14.8957907      0.996661712      75.6025991
8.076                0.996677419      74.5521827   8.52088549e-06     -16.4848987   8.49912458e-06      -15.942493      0.996678055      74.5569128
8.08                 0.996692347      73.5156697   8.70753511e-06     -17.5129459   8.68683214e-06     -16.9794975      0.996692678      73.5204412
8.084                0.996705786       72.488119   8.89691242e-06      -18.530363   8.87746044e-06     -18.0070449      0.996705818      72.4929361
8.088                0.996717948      71.4692926   9.08906178e-06     -19.5375854   9.07104709e-06     -19.0253707      0.996717687      71.4741589
8.092                0.996729021      70.4589612   9.28402903e-06     -20.5350235   9.26763095e-06     -20.0347048      0.996728477      70.4638794
8.096                0.996739176      69.4569037   9.48186155e-06     -21.5230644   9.46725215e-06     -21.0352718       0.99673836      69.4618761
8.1                  0.996748566      68.4629072   9.68260817e-06     -22.5020733   9.66995204e-06     -22.0272909      0.996747489      68.4679353
8.104                0.996757326      67.4767662    9.8863192e-06     -23.4723949   9.87577326e-06      -23.010976      0.996756002      67.4818513
8.108                0.996765578      66.4982827   1.00930464e-05     -24.4343551   1.00847597e-05     -23.9865358      0.996764022      66.5034253
8.112                0.996773432      65.5272656    1.0302843e-05     -25.3882617   1.02969567e-05     -24.9541737      0.996771657       65.532466
8.116                0.996780982      64.5635304   1.05157636e-05     -26.3344057   1.05124106e-05     -25.9140878      0.996779004      64.5687885
8.12                 0.996788314      63.6068992   1.07318643e-05     -27.2730625   1.07311692e-05     -26.8664715      0.996786148      63.6122146
8.124                0.996795502      62.6572001   1.09512026e-05     -28.2044928   1.09532817e-05     -27.8115128      0.996793163       62.662572
8.128                0.996802613       61.714267   1.11738373e-05     -29.1289436   1.11787986e-05     -28.7493952      0.996800115      61.7196947
8.132                0.996809702      60.7779397   1.13998289e-05     -30.0466486   1.14077717e-05     -29.6802972       0.99680706      60.7834218
8.136                 0.99681682      59.8480632   1.16292391e-05     -30.9578297    1.1640254e-05     -30.6043926      0.996814048      59.8535985
8.14                 0.996824008      58.9244877   1.18621311e-05     -31.8626972   1.18763003e-05     -31.5218508       0.99682112      58.9300747
8.144                0.996831303      58.0070683   1.20985696e-05     -32.7614508   1.21159663e-05     -32.4328364      0.996828312      58.0127054
8.148                0.996838735      57.0956651   1.23386207e-05     -33.6542799   1.23593096e-05     -33.3375101      0.996835654      57.1013506
8.152                 0.99684633      56.1901426    1.2582352e-05     -34.5413647   1.26063887e-05     -34.2360279      0.996843171      56.1958747
8.156                0.996854107      55.2903696   1.28298325e-05     -35.4228763   1.28572641e-05     -35.1285418      0.996850882      55.2961464
8.16                 0.996862084      54.3962193   1.30811329e-05     -36.2989774   1.31119974e-05        -36.0152      0.996858803      54.4020389
8.164                0.996870273      53.5075688    1.3336325e-05     -37.1698229   1.33706517e-05     -36.8961465      0.996866947      53.5134292
8.168                0.996878684      52.6242992   1.35954826e-05     -38.0355601   1.36332919e-05     -37.7715215      0.996875321      52.6301984
8.172                0.996887321      51.7462951   1.38586807e-05     -38.8963295   1.38999842e-05     -38.6414616      0.996883932      51.7522312
8.176                 0.99689619      50.8734449   1.41259961e-05     -39.7522647   1.41707963e-05     -39.5060997      0.996892781      50.8794159
8.18                 0.996905291      50.0056404   1.43975069e-05     -40.6034934   1.44457978e-05     -40.3655653      0.996901871      50.0116443
8.184                0.996914623      49.1427766    1.4673293e-05     -41.4501372   1.47250596e-05     -41.2199844      0.996911198      49.1488114
8.188                0.996924183      48.2847518    1.4953436e-05     -42.2923121   1.50086546e-05     -42.0694798      0.996920759      48.2908156
8.192                0.996933966      47.4314672    1.5238019e-05     -43.1301291    1.5296657e-05      -42.914171       0.99693055      47.4375582
8.196                0.996943967      46.5828271   1.55271268e-05      -43.963694    1.5589143e-05     -43.7541744      0.996940563      46.5889434
8.2                  0.996954179      45.7387386   1.58208459e-05     -44.7931081   1.58861905e-05     -44.5896035      0.996950792      45.7448783
8.204                0.996964593      44.8991114   1.61192646e-05     -45.6184683   1.61878791e-05     -45.4205688      0.996961226      44.9052728
8.208                0.996975199      44.0638578   1.64224729e-05     -46.4398672   1.64942903e-05     -46.2471779      0.996971856      44.0700393
8.212                0.996985988      43.2328929   1.67305626e-05     -47.2573935   1.68055075e-05     -47.0695359      0.996982671      43.2390927
8.216                0.996996949      42.4061338   1.70436273e-05     -48.0711323   1.71216161e-05      -47.887745      0.996993662      42.4123505
8.22                 0.997008071      41.5835003   1.73617626e-05     -48.8811649   1.74427032e-05     -48.7019048      0.997004815      41.5897323
8.224                0.997019343      40.7649143   1.76850657e-05     -49.6875696   1.77688582e-05     -49.5121125      0.997016118      40.7711601
8.228                0.997030752      39.9502998   1.80136361e-05     -50.4904213   1.81001723e-05     -50.3184629       0.99702756      39.9565581
8.232                0.997042285       39.139583    1.8347575e-05      -51.289792   1.84367391e-05     -51.1210484      0.997039128      39.1458524
8.236                0.997053932       38.332692   1.86869856e-05     -52.0857509   1.87786541e-05     -51.9199589       0.99705081      38.3389714
8.24                  0.99706568       37.529557   1.90319732e-05     -52.8783644   1.91260152e-05     -52.7152823      0.997062591      37.5358451
8.244                0.997077515      36.7301099   1.93826453e-05     -53.6676965   1.94789225e-05     -53.5071042       0.99707446      36.7364056
8.248                0.997089426      35.9342844   1.97391113e-05     -54.4538088   1.98374785e-05     -54.2955081      0.997086405      35.9405868
8.252                  0.9971014      35.1420161   2.01014828e-05     -55.2367605   2.02017881e-05     -55.0805755      0.997098412      35.1483241
8.256                0.997113426      34.3532422   2.04698739e-05     -56.0166087   2.05719588e-05     -55.8623856      0.997110468       34.359555
8.26                  0.99712549      33.5679015   2.08444004e-05     -56.7934084   2.09481003e-05     -56.6410158      0.997122563      33.5742181
8.264                0.997137582      32.7859342    2.1225181e-05     -57.5672128   2.13303254e-05     -57.4165416      0.997134684      32.7922541
8.268                 0.99714969      32.0072823   2.16123363e-05     -58.3380732   2.17187494e-05     -58.1890364      0.997146819      32.0136047
8.272                0.997161802      31.2318891   2.20059895e-05     -59.1060391   2.21134901e-05     -58.9585717      0.997158956      31.2382134
8.276                0.997173908      30.4596994   2.24062662e-05     -59.8711583   2.25146688e-05     -59.7252172      0.997171085      30.4660249
8.28                 0.997185997      29.6906591   2.28132944e-05     -60.6334771   2.29224091e-05     -60.4890406      0.997183195      29.6969855
8.284                0.997198058      28.9247158   2.32272049e-05     -61.3930404   2.33368382e-05      -61.250108      0.997195276      28.9310425
8.288                0.997210082      28.1618179   2.36481309e-05     -62.1498915   2.37580861e-05     -62.0084833      0.997207317      28.1681447
8.292                0.997222059      27.4019156   2.40762082e-05     -62.9040724   2.41862861e-05     -62.7642288      0.997219308       27.408242
8.296                0.997233979      26.6449597   2.45115755e-05      -63.655624   2.46215749e-05     -63.5174049      0.997231241      26.6512855
8.3                  0.997245833      25.8909025   2.49543743e-05     -64.4045858   2.50640927e-05     -64.2680699      0.997243106      25.8972276
8.304                0.997257614      25.1396973   2.54047487e-05     -65.1509961    2.5513983e-05     -65.0162805      0.997254894      25.1460215
8.308                0.997269313      24.3912986   2.58628459e-05     -65.8948922   2.59713931e-05     -65.7620914      0.997266599      24.3976217
8.312                0.997280922      23.6456617    2.6328816e-05     -66.6363104    2.6436474e-05     -66.5055553      0.997278211      23.6519838
8.316                0.997292433       22.902743   2.68028122e-05      -67.375286   2.69093806e-05      -67.246723      0.997289723       22.909064
8.32                  0.99730384      22.1624999   2.72849907e-05     -68.1118532   2.73902717e-05     -67.9856434      0.997301129        22.16882
8.324                0.997315137      21.4248908   2.77755109e-05     -68.8460455   2.78793101e-05     -68.7223633      0.997312422        21.43121
8.328                0.997326315      20.6898749   2.82745354e-05     -69.5778954   2.83766627e-05     -69.4569274      0.997323595      20.6961933
8.332                0.997337371      19.9574123   2.87822303e-05     -70.3074347   2.88825009e-05     -70.1893784      0.997334643      19.9637301
8.336                0.997348298       19.227464   2.92987649e-05     -71.0346943   2.93970003e-05     -70.9197568       0.99734556      19.2337814
8.34                  0.99735909      18.4999918    2.9824312e-05     -71.7597045   2.99203407e-05     -71.6481009      0.997356341       18.506309
8.344                0.997369744      17.7749581    3.0359048e-05     -72.4824949   3.04527069e-05     -72.3744471      0.997366982      17.7812755
8.348                0.997380255      17.0523265   3.09031528e-05     -73.2030943   3.09942879e-05     -73.0988291      0.997377477      17.0586444
8.352                0.997390618       16.332061   3.14568103e-05     -73.9215309   3.15452778e-05     -73.8212787      0.997387823      16.3383797
8.356                 0.99740083      15.6141264   3.20202078e-05     -74.6378323    3.2105875e-05     -74.5418252      0.997398017      15.6204464
8.36                 0.997410887      14.8984883   3.25935369e-05     -75.3520256   3.26762831e-05     -75.2604958      0.997408054      14.9048099
8.364                0.997420786      14.1851128   3.31769927e-05     -76.0641374   3.32567106e-05     -75.9773152      0.997417932      14.1914366
8.368                0.997430524       13.473967   3.37707749e-05     -76.7741935   3.38473706e-05     -76.6923058      0.997427648      13.4802933
8.372                0.997440098      12.7650183   3.43750869e-05     -77.4822194   3.44484816e-05     -77.4054878      0.997437199      12.7713476
8.376                0.997449507      12.0582347   3.49901366e-05     -78.1882402   3.50602669e-05     -78.1168791      0.997446584      12.0645677
8.38                 0.997458748      11.3535852   3.56161362e-05     -78.8922803   3.56829549e-05     -78.8264952        0.9974558      11.3599223
8.384                 0.99746782       10.651039   3.62533024e-05     -79.5943638   3.63167791e-05     -79.5343497      0.997464846      10.6573808
8.388                0.997476721      9.95056607   3.69018564e-05     -80.2945144   3.69619781e-05     -80.2404536       0.99747372      9.95691315
8.392                0.997485449      9.25213678   3.75620242e-05     -80.9927554   3.76187954e-05     -80.9448164      0.997482421      9.25848972
8.396                0.997494004      8.55572215   3.82340364e-05     -81.6891097   3.82874797e-05     -81.6474451      0.997490949      8.56208157
8.4                  0.997502386       7.8612937   3.89181286e-05     -82.3835997   3.89682849e-05     -82.3483454      0.997499303      7.86766022
8.404                0.997510593      7.16882343   3.96145415e-05     -83.0762477   3.96614698e-05     -83.0475207      0.997507482      7.17519769
8.408                0.997518625      6.47828384   4.03235208e-05     -83.7670755   4.03672982e-05     -83.7449733      0.997515487       6.4846665
8.412                0.997526482      5.78964791   4.10453175e-05     -84.4561046   4.10860389e-05     -84.4407039      0.997523316      5.79603962
8.416                0.997534164      5.10288908    4.1780188e-05     -85.1433563   4.18179658e-05     -85.1347119      0.997530971      5.10929052
8.42                 0.997541672      4.41798123   4.25283942e-05     -85.8288513   4.25633577e-05     -85.8269956      0.997538452      4.42439308
8.424                0.997549005      3.73489869   4.32902036e-05     -86.5126104   4.33224984e-05     -86.5175527      0.997545759      3.74132163
8.428                0.997556165       3.0536162   4.40658897e-05     -87.1946539   4.40956766e-05     -87.2063799      0.997552893      3.06005093
8.432                0.997563153      2.37410892   4.48557317e-05     -87.8750019    4.4883186e-05     -87.8934737      0.997559856      2.38055613
8.436                0.997569968       1.6963524   4.56600149e-05     -88.5536742   4.56853252e-05     -88.5788302      0.997566647       1.7028128
8.44                 0.997576613      1.02032259   4.64790309e-05     -89.2306904   4.65023979e-05     -89.2624455      0.997573269      1.02679689
8.444                0.997583089     0.345995805   4.73130776e-05       -89.90607    4.7334713e-05     -89.9443159      0.997579722     0.352484711
8.448                0.997589396    -0.326651262   4.81624595e-05      -90.579832   4.81825841e-05     -90.6244381      0.997586008    -0.320147037
8.452                0.997595537    -0.997641566   4.90274878e-05     -91.2519954   4.90463303e-05     -91.3028092      0.997592129    -0.991121311
8.456                0.997601513     -1.66699772   4.99084803e-05     -91.9225788   4.99262761e-05     -91.9794272      0.997598086     -1.66046072
8.46                 0.997607325     -2.33474198   5.08057621e-05     -92.5916009   5.08227512e-05      -92.654291      0.997603881     -2.32818753
8.464                0.997612976     -3.00089631   5.17196654e-05     -93.2590799    5.1736091e-05     -93.3274005      0.997609516     -2.99432369
8.468                0.997618467     -3.66548232   5.26505298e-05      -93.925034   5.26666365e-05     -93.9987568      0.997614993     -3.65889083
8.472                  0.9976238     -4.32852133   5.35987024e-05     -94.5894811   5.36147349e-05     -94.6683625      0.997620313     -4.32191026
8.476                0.997628978     -4.99003435   5.45645381e-05      -95.252439   5.45807393e-05     -95.3362214       0.99762548     -4.98340299
8.48                 0.997634002     -5.65004211   5.55483996e-05     -95.9139253   5.55650094e-05     -96.0023389      0.997630495     -5.64338976
8.484                0.997638875     -6.30856503   5.65506579e-05     -96.5739575   5.65679113e-05     -96.6667219      0.997635361     -6.30189101
8.488                0.997643598     -6.96562327   5.75716923e-05     -97.2325529   5.75898183e-05     -97.3293789      0.997640079     -6.95892688
8.492                0.997648175     -7.62123673   5.86118906e-05     -97.8897286   5.86311107e-05     -97.9903201      0.997644653     -7.61451728
8.496                0.997652608     -8.27542502   5.96716493e-05     -98.5455016   5.96921764e-05     -98.6495571      0.997649084     -8.26868184
8.5                  0.997656898     -8.92820751   6.07513741e-05     -99.1998887   6.07734112e-05     -99.3071033      0.997653375     -8.92143993
8.504                0.997661048     -9.57960333   6.18514796e-05     -99.8529067   6.18752189e-05     -99.9629735      0.997657528     -9.57281068
8.508                0.997665062     -10.2296314   6.29723901e-05     -100.504572    6.2998012e-05     -100.617184      0.997661547      -10.222813
8.512                0.997668941     -10.8783102   6.41145395e-05     -101.154902   6.41422119e-05     -101.269752      0.997665433     -10.8714655
8.516                0.997672687     -11.5256584   6.52783716e-05     -101.803911   6.53082491e-05     -101.920698       0.99766919     -11.5187866
8.52                 0.997676304      -12.171694   6.64643404e-05     -102.451617   6.64965639e-05     -102.570041      0.997672819     -12.1647945
8.524                0.997679794      -12.816435   6.76729103e-05     -103.098035   6.77076063e-05     -103.217802      0.997676323     -12.8095073
8.528                 0.99768316     -13.4598992   6.89045566e-05     -103.743182   6.89418372e-05     -103.864005      0.997679705     -13.4529426
8.532                0.997686403     -14.1021042   7.01597653e-05     -104.387073   7.01997277e-05     -104.508672      0.997682967      -14.095118
8.536                0.997689527     -14.7430673    7.1439034e-05     -105.029724   7.14817604e-05     -105.151828      0.997686113      -14.736051
8.54                 0.997692535     -15.3828057   7.27428714e-05     -105.671151   7.27884294e-05     -105.793498      0.997689144     -15.3757587
8.544                0.997695428     -16.0213364   7.40717986e-05     -106.311368   7.41202406e-05     -106.433707      0.997692064      -16.014258
8.548                 0.99769821     -16.6586761   7.54263484e-05     -106.950392   7.54777124e-05     -107.072481      0.997694874     -16.6515659
8.552                0.997700882     -17.2948415   7.68070665e-05     -107.588238   7.68613758e-05     -107.709847      0.997697578     -17.2876988
8.556                0.997703448      -17.929849    7.8214511e-05     -108.224921   7.82717751e-05     -108.345831      0.997700177     -17.9226733
8.56                  0.99770591     -18.5637149   7.96492535e-05     -108.860456   7.97094677e-05      -108.98046      0.997702675     -18.5565057
8.564                0.997708271     -19.1964554   8.11118789e-05     -109.494859   8.11750255e-05     -109.613762      0.997705074      -19.189212
8.568                0.997710532     -19.8280862    8.2602986e-05     -110.128143   8.26690341e-05     -110.245763      0.997707376     -19.8208083
8.572                0.997712697     -20.4586234   8.41231877e-05     -110.760324   8.41920943e-05      -110.87649      0.997709584     -20.4513103
8.576                0.997714768     -21.0880824   8.56731117e-05     -111.391417   8.57448218e-05      -111.50597        0.9977117     -21.0807337
8.58                 0.997716747     -21.7164789   8.72534005e-05     -112.021436   8.73278478e-05      -112.13423      0.997713727      -21.709094
8.584                0.997718637     -22.3438281   8.88647121e-05     -112.650396   8.89418195e-05     -112.761296      0.997715666     -22.3364065
8.588                 0.99772044     -22.9701452   9.05077201e-05     -113.278312   9.05874006e-05     -113.387194      0.997717521     -22.9626866
8.592                0.997722158     -23.5954454   9.21831144e-05     -113.905197   9.22652713e-05     -114.011951      0.997719294     -23.5879492
8.596                0.997723794     -24.2197437   9.38916017e-05     -114.531067   9.39761294e-05     -114.635591      0.997720986     -24.2122094
8.6                  0.997725349     -24.8430548   9.56339055e-05     -115.155935     9.572069e-05     -115.258139        0.9977226      -24.835482
8.604                0.997726827     -25.4653934   9.74107669e-05     -115.779816   9.74996867e-05      -115.87962      0.997724139     -25.4577817
8.608                0.997728229     -26.0867742   9.92229452e-05     -116.402723   9.93138715e-05     -116.500059      0.997725603     -26.0791231
8.612                0.997729557     -26.7072116   0.000101071218     -117.024672   0.000101164016     -117.119478      0.997726996     -26.6995206
8.616                0.997730813     -27.3267199   0.000102956382     -117.645675   0.000103050909     -117.737902      0.997728319     -27.3189888
8.62                 0.997731999     -27.9453135   0.000104879253     -118.265747   0.000104975364     -118.355352      0.997729575     -27.9375417
8.624                0.997733118     -28.5630065   0.000106840668     -118.884902    0.00010693821     -118.971851      0.997730765     -28.5551936
8.628                0.997734171     -29.1798128   0.000108841483     -119.503153   0.000108940301     -119.587421       0.99773189     -29.1719586
8.632                0.997735161     -29.7957466   0.000110882577     -120.120514   0.000110982511     -120.202082      0.997732954     -29.7878505
8.636                0.997736088     -30.4108215   0.000112964849     -120.736999   0.000113065735     -120.815856      0.997733957     -30.4028832
8.64                 0.997736955     -31.0250514   0.000115089221     -121.352621   0.000115190894     -121.428763      0.997734902     -31.0170706
8.644                0.997737763       -31.63845   0.000117256638     -121.967394   0.000117358929     -122.040823       0.99773579     -31.6304263
8.648                0.997738515     -32.2510308   0.000119468069     -122.581332   0.000119570807     -122.652054      0.997736622     -32.2429638
8.652                0.997739211     -32.8628073   0.000121724507     -123.194448   0.000121827519     -123.262477        0.9977374     -32.8546968
8.656                0.997739854     -33.4737931   0.000124026969     -123.806755   0.000124130082     -123.872108      0.997738127     -33.4656385
8.66                 0.997740444     -34.0840013   0.000126376499     -124.418267   0.000126479539     -124.480967      0.997738802     -34.0758025
8.664                0.997740984     -34.6934453   0.000128774166     -125.028997   0.000128876957     -125.089071      0.997739428     -34.6852019
8.668                0.997741474     -35.3021383   0.000131221068     -125.638958   0.000131323435     -125.696436      0.997740006       -35.29385
8.672                0.997741917     -35.9100935   0.000133718329     -126.248163   0.000133820096     -126.303081      0.997740538     -35.9017599
8.676                0.997742313     -36.5173238   0.000136267102     -126.856626   0.000136368095     -126.909021      0.997741024     -36.5089447
8.68                 0.997742664     -37.1238424    0.00013886857      -127.46436   0.000138968614     -127.514272      0.997741465     -37.1154175
8.684                0.997742971     -37.7296621   0.000141523945     -128.071378   0.000141622867      -128.11885      0.997741863     -37.7211911
8.688                0.997743234     -38.3347959   0.000144234472     -128.677692     0.0001443321     -128.722772      0.997742219     -38.3262784
8.692                0.997743456     -38.9392566   0.000147001428     -129.283317   0.000147097589     -129.326051      0.997742535     -38.9306924
8.696                0.997743637     -39.5430569    0.00014982612     -129.888264   0.000149920645     -129.928702      0.997742809     -39.5344458
8.7                  0.997743779     -40.1462097   0.000152709891     -130.492547   0.000152802614     -130.530741      0.997743045     -40.1375513
8.704                0.997743881     -40.7487276   0.000155654121     -131.096179   0.000155744873     -131.132182      0.997743243     -40.7400216
8.708                0.997743946     -41.3506232   0.000158660221     -131.699172    0.00015874884     -131.733039      0.997743403     -41.3418695
8.712                0.997743973     -41.9519092   0.000161729642      -132.30154   0.000161815967     -132.333325      0.997743526     -41.9431074
8.716                0.997743965     -42.5525982   0.000164863873     -132.903295   0.000164947744     -132.933055      0.997743613      -42.543748
8.72                  0.99774392     -43.1527026   0.000168064441      -133.50445   0.000168145701     -133.532241      0.997743665     -43.1438039
8.724                0.997743841      -43.752235   0.000171332914     -134.105018   0.000171411409     -134.130898      0.997743682     -43.7432874
8.728                0.997743728     -44.3512078   0.000174670901     -134.705011   0.000174746479     -134.729038      0.997743665     -44.3422112
8.732                 0.99774358     -44.9496335   0.000178080053     -135.304443   0.000178152566     -135.326674      0.997743614     -44.9405876
8.736                  0.9977434     -45.5475245   0.000181562066     -135.903326   0.000181631369      -135.92382      0.997743531      -45.538429
8.74                 0.997743187     -46.1448932   0.000185118681     -136.501673    0.00018518463     -136.520487      0.997743414     -46.1357478
8.744                0.997742942      -46.741752   0.000188751683     -137.099496   0.000188814141     -137.116688      0.997743265     -46.7325565
8.748                0.997742666     -47.3381131    0.00019246291     -137.696808   0.000192521739     -137.712436      0.997743083     -47.3288673
8.752                0.997742357      -47.933989   0.000196254244     -138.293622   0.000196309311     -138.307744       0.99774287     -47.9246926
8.756                0.997742018      -48.529392    0.00020012762     -138.889951   0.000200178797     -138.902622      0.997742626     -48.5200448
8.76                 0.997741648     -49.1243343   0.000204085026     -139.485807   0.000204132186     -139.497084       0.99774235     -49.1149361
8.764                0.997741247     -49.7188283   0.000208128503     -140.081202   0.000208171523     -140.091141      0.997742042     -49.7093788
8.768                0.997740815     -50.3128863   0.000212260147      -140.67615   0.000212298909     -140.684806      0.997741703     -50.3033852
8.772                0.997740354     -50.9065206   0.000216482112     -141.270663     0.0002165165      -141.27809      0.997741334     -50.8969677
8.776                0.997739862     -51.4997434   0.000220796611     -141.864754   0.000220826513     -141.871006      0.997740933     -51.4901385
8.78                 0.997739339     -52.0925671   0.000225205916     -142.458436   0.000225231224     -142.463565      0.997740501     -52.0829099