! TOUCHSTONE file generated by CST MICROWAVE STUDIO
! Date and time: Sat Oct  4 19:39:52 2025
! Project name: Dise˝oBPF_plata.cst
! Parameters = {L=20; Lc1=19.0311; Lc2=21.4361; a=19.05; b=9.525; t=1.5; w1=11.7375; w2=8.46096; w3=7.78789}
! Header version: 2024
! Port assignment regex: !\s*Touchstone port\s*([0-9]+)\s*=\s*(CST MWS port|CST DES external port|CST DES block port)\s*(.+)\s* \(\"(.*)\"\)(\s*mode\s*([0-9]+))?.*
! Touchstone port assignment:
! Touchstone port 1 = CST MWS port 1 ("")
! Touchstone port 2 = CST MWS port 2 ("")
! S-Parameters are not renormalized. Unphysical impedance of 610.374 will be written to the file.
# GHz S MA R 610.374
8                    0.996709837      97.1778973   3.51044337e-06      6.83621341   3.51060593e-06      6.83808361      0.996714676      97.1768299
8.004                0.996820748      95.9207652   3.58405107e-06      5.37610408   3.60338894e-06      5.71800666      0.996826483      95.9199831
8.008                0.996919176      94.6795122   3.65953646e-06      3.94551531   3.69710506e-06      4.59703969      0.996925636      94.6790187
8.012                0.997006356        93.45362   3.73688485e-06      2.54364462   3.79181458e-06      3.47594452      0.997013391      93.4534174
8.016                0.997083412      92.2425921   3.81608338e-06      1.16967857    3.8875769e-06       2.3554185      0.997090893      92.2426818
8.02                 0.997151372       91.045953   3.89712112e-06    -0.177201104   3.98445059e-06      1.23610092      0.997159185      91.0463353
8.024                0.997211171      89.8632465   3.97998897e-06     -1.49781211   4.08249331e-06     0.118578498      0.997219218      89.8639213
8.028                 0.99726366      88.6940357   4.06467976e-06     -2.79296702   4.18176185e-06    -0.996609881      0.997271857      88.6950019
8.032                0.997309616      87.5379016    4.1511882e-06     -4.06346935   4.28231211e-06     -2.10896907      0.997317889      87.5391577
8.036                0.997349743      86.3944422    4.2395109e-06     -5.31011035   4.38419913e-06     -3.21804408      0.997358031      86.3959862
8.04                 0.997384682      85.2632719   4.32964632e-06     -6.53366626   4.48747708e-06     -4.32341695      0.997392933      85.2651012
8.044                0.997415016      84.1440209   4.42159485e-06     -7.73489612   4.59219929e-06     -5.42470401      0.997423185      84.1461326
8.048                0.997441274       83.036334   4.51535871e-06     -8.91453999   4.69841827e-06     -6.52155344      0.997449324      83.0387248
8.052                0.997463934      81.9398705   4.61094203e-06     -10.0733176   4.80618573e-06      -7.6136431      0.997471834      81.9425367
8.056                0.997483431      80.8543028   4.70835078e-06     -11.2119274   4.91555257e-06     -8.70067858      0.997491158      80.8572407
8.06                 0.997500158      79.7793166   4.80759284e-06     -12.3310456   5.02656898e-06     -9.78239148      0.997507691      79.7825221
8.064                0.997514469      78.7146098   4.90867795e-06     -13.4313259    5.1392844e-06     -10.8585378      0.997521793      78.7180786
8.068                0.997526687       77.659892   5.01161776e-06     -14.5133993   5.25374758e-06     -11.9288965       0.99753379      77.6636196
8.072                0.997537098       76.614884   5.11642583e-06     -15.5778738   5.37000663e-06     -12.9932681      0.997543974      76.6188659
8.076                0.997545965      75.5793173   5.22311764e-06     -16.6253347   5.48810902e-06     -14.0514737      0.997552607      75.5835489
8.08                 0.997553521      74.5529338   5.33171064e-06     -17.6563449   5.60810163e-06     -15.1033534      0.997559927      74.5574104
8.084                0.997559976       73.535485    5.4422243e-06     -18.6714449   5.73003079e-06     -16.1487658      0.997566145      73.5402018
8.088                0.997565517      72.5267317   5.55468009e-06     -19.6711538   5.85394234e-06     -17.1875864      0.997571451      72.5316839
8.092                0.997570313      71.5264436   5.66910159e-06     -20.6559697   5.97988162e-06     -18.2197071      0.997576014      71.5316265
8.096                0.997574513      70.5343992   5.78551454e-06     -21.6263702   6.10789355e-06     -19.2450352      0.997579986      70.5398079
8.1                  0.997578251      69.5503847   5.90394685e-06     -22.5828132   6.23802265e-06     -20.2634925        0.9975835      69.5560144
8.104                0.997581644      68.5741943   6.02442874e-06     -23.5257378   6.37031312e-06     -21.2750145      0.997586675      68.5800404
8.108                0.997584797      67.6056297    6.1469928e-06     -24.4555651   6.50480881e-06     -22.2795495      0.997589616      67.6116875
8.112                  0.9975878      66.6444996   6.27167407e-06     -25.3726992   6.64155334e-06     -23.2770582      0.997592415      66.6507643
8.116                0.997590734      65.6906195   6.39851013e-06     -26.2775277   6.78059011e-06     -24.2675129      0.997595152      65.6970866
8.12                 0.997593669      64.7438115   6.52754125e-06     -27.1704234   6.92196231e-06     -25.2508964      0.997597898      64.7504765
8.124                0.997596664      63.8039037   6.65881048e-06      -28.051745   7.06571304e-06     -26.2272021      0.997600713      63.8107622
8.128                0.997599773      62.8707305   6.79236379e-06     -28.9218379   7.21188527e-06     -27.1964326      0.997603648       62.877778
8.132                0.997603038      61.9441318   6.92825017e-06     -29.7810361   7.36052195e-06     -28.1585997      0.997606748      61.9513641
8.136                0.997606497      61.0239529   7.06652184e-06     -30.6296627   7.51166603e-06     -29.1137235      0.997610051      61.0313658
8.14                 0.997610182      60.1100445   7.20723434e-06     -31.4680317   7.66536048e-06     -30.0618321      0.997613586      60.1176339
8.144                0.997614116      59.2022622   7.35044672e-06     -32.2964488   7.82164838e-06     -31.0029608      0.997617379      59.2100241
8.148                0.997618322      58.3004665   7.49622168e-06     -33.1152133   7.98057292e-06     -31.9371516       0.99762145       58.308397
8.152                0.997622812      57.4045224   7.64462578e-06     -33.9246193   8.14217748e-06     -32.8644532      0.997625814      57.4126178
8.156                0.997627601      56.5142996   7.79572953e-06     -34.7249573   8.30650565e-06     -33.7849199      0.997630483       56.522556
8.16                 0.997632695      55.6296715   7.94960761e-06     -35.5165156   8.47360128e-06     -34.6986114      0.997635463      55.6380855
8.164                0.997638098      54.7505162   8.10633901e-06     -36.2995822   8.64350852e-06     -35.6055925       0.99764076      54.7590841
8.168                0.997643813      53.8767152   8.26600715e-06     -37.0744464   8.81627188e-06     -36.5059326      0.997646374      53.8854337
8.172                0.997649839       53.008154   8.42870003e-06     -37.8414004   8.99193625e-06     -37.3997053      0.997652305      53.0170198
8.176                0.997656172      52.1447216   8.59451033e-06     -38.6007415   9.17054696e-06      -38.286988      0.997658548      52.1537315
8.18                 0.997662807      51.2863106    8.7635355e-06     -39.3527733    9.3521498e-06     -39.1678615      0.997665099      51.2954615
8.184                0.997669738      50.4328167   8.93587774e-06     -40.0978082   9.53679111e-06     -40.0424099      0.997671951      50.4421056
8.188                0.997676956       49.584139   9.11164407e-06     -40.8361688   9.72451777e-06     -40.9107201      0.997679094      49.5935629
8.192                0.997684451      48.7401794   9.29094621e-06     -41.5681897   9.91537727e-06     -41.7728813      0.997686519      48.7497355
8.196                0.997692213       47.900843   9.47390046e-06     -42.2942196   1.01094177e-05     -42.6289853      0.997694214      47.9105287
8.2                  0.997700231      47.0660375   9.66062755e-06     -43.0146221    1.0306688e-05     -43.4791255      0.997702169      47.0758501
8.204                0.997708491      46.2356736   9.85125225e-06     -43.7297781   1.05072376e-05     -44.3233972      0.997710369      46.2456106
8.208                0.997716981      45.4096644   1.00459031e-05     -44.4400861    1.0711117e-05     -45.1618971      0.997718802      45.4197233
8.212                0.997725686      44.5879256   1.02447117e-05     -45.1459635   1.09183771e-05     -45.9947232      0.997727454       44.598104
8.216                0.997734594      43.7703753   1.04478125e-05     -45.8478474   1.11290701e-05     -46.8219743      0.997736311      43.7806709
8.22                  0.99774369      42.9569338   1.06553415e-05     -46.5461939   1.13432489e-05     -47.6437502      0.997745358      42.9673446
8.224                 0.99775296       42.147524   1.08674359e-05     -47.2414787   1.15609673e-05     -48.4601512      0.997754581      42.1580476
8.228                0.997762388      41.3420705   1.10842327e-05     -47.9341953   1.17822802e-05     -49.2712781      0.997763965       41.352705
8.232                0.997771961      40.5405004    1.1305868e-05     -48.6248539   1.20072434e-05     -50.0772319      0.997773495      40.5512438
8.236                0.997781665      39.7427425   1.15324752e-05     -49.3139789   1.22359139e-05     -50.8781138      0.997783156      39.7535929
8.24                 0.997791484      38.9487276   1.17641842e-05     -50.0021059   1.24683498e-05     -51.6740246      0.997792935      38.9596833
8.244                0.997801404      38.1583887   1.20011194e-05     -50.6897779   1.27046103e-05     -52.4650654      0.997802817      38.1694478
8.248                0.997811412        37.37166   1.22433989e-05     -51.3775408   1.29447558e-05     -53.2513367      0.997812786      37.3828208
8.252                0.997821494      36.5884778   1.24911323e-05     -52.0659381    1.3188848e-05     -54.0329386      0.997822831      36.5997388
8.256                0.997831636      35.8087802   1.27444195e-05     -52.7555047     1.343695e-05     -54.8099706      0.997832937      35.8201397
8.26                 0.997841825      35.0325065   1.30033497e-05      -53.446761    1.3689126e-05     -55.5825315       0.99784309       35.043963
8.264                0.997852049      34.2595979   1.32679992e-05     -54.1402054   1.39454417e-05     -56.3507196      0.997853279      34.2711499
8.268                0.997862294      33.4899968    1.3538431e-05     -54.8363073   1.42059643e-05     -57.1146321      0.997863489      33.5016431
8.272                 0.99787255      32.7236475   1.38146938e-05        -55.5355   1.44707623e-05     -57.8743654       0.99787371      32.7353865
8.276                0.997882803      31.9604951   1.40968213e-05     -56.2381734    1.4739906e-05     -58.6300147      0.997883929      31.9723257
8.28                 0.997893043      31.2004866   1.43848318e-05     -56.9446676   1.50134671e-05     -59.3816744      0.997894135      31.2124074
8.284                0.997903259      30.4435699   1.46787288e-05     -57.6552671   1.52915188e-05     -60.1294377      0.997904317      30.4555798
8.288                0.997913441      29.6896945    1.4978501e-05     -58.3701951   1.55741362e-05     -60.8733963      0.997914465      29.7017923
8.292                0.997923578      28.9388107   1.52841234e-05     -59.0896104    1.5861396e-05     -61.6136411      0.997924569      28.9509953
8.296                0.997933662      28.1908704   1.55955587e-05     -59.8136041   1.61533766e-05     -62.3502614      0.997934618      28.2031407
8.3                  0.997943682      27.4458264   1.59127589e-05      -60.542199   1.64501585e-05     -63.0833452      0.997944605      27.4581813
8.304                0.997953631      26.7036326   1.62356672e-05     -61.2753492   1.67518236e-05     -63.8129793       0.99795452      26.7160712
8.308                  0.9979635      25.9642441   1.65642204e-05     -62.0129427   1.70584563e-05     -64.5392489      0.997964354      25.9767653
8.312                0.997973281      25.2276168   1.68983514e-05     -62.7548039   1.73701424e-05     -65.2622377      0.997974101      25.2402198
8.316                0.997982967      24.4937078   1.72379914e-05     -63.5006986   1.76869701e-05     -65.9820282      0.997983753      24.5063916
8.32                 0.997992551      23.7624751    1.7583073e-05     -64.2503397   1.80090296e-05     -66.6987011      0.997993303      23.7752389
8.324                0.998002026      23.0338775   1.79335326e-05     -65.0033938   1.83364132e-05     -67.4123358      0.998002745      23.0467204
8.328                0.998011388       22.307875   1.82893125e-05     -65.7594886   1.86692154e-05       -68.12301      0.998012071      22.3207962
8.332                0.998020628      21.5844282   1.86503637e-05     -66.5182208    1.9007533e-05     -68.8308001      0.998021278      21.5974269
8.336                0.998029744      20.8634986   1.90166475e-05     -67.2791638    1.9351465e-05     -69.5357807      0.998030359       20.876574
8.34                 0.998038728      20.1450485   1.93881376e-05     -68.0418764   1.97011128e-05     -70.2380249      0.998039309      20.1581999
8.344                0.998047578      19.4290412   1.97648209e-05     -68.8059095   2.00565803e-05     -70.9376042      0.998048125      19.4422678
8.348                0.998056289      18.7154405   2.01466991e-05      -69.570814   2.04179739e-05     -71.6345887      0.998056801      18.7287415
8.352                0.998064857       18.004211   2.05337892e-05      -70.336147   2.07854025e-05     -72.3290467      0.998065335      18.0175859
8.356                0.998073279      17.2953182   2.09261238e-05     -71.1014778   2.11589776e-05     -73.0210449      0.998073722      17.3087662
8.36                 0.998081551       16.588728   2.13237517e-05     -71.8663928   2.15388133e-05     -73.7106487      0.998081961      16.6022484
8.364                0.998089672      15.8844072   2.17267371e-05     -72.6304994   2.19250266e-05     -74.3979217      0.998090047      15.8979995
8.368                0.998097638      15.1823233   2.21351596e-05     -73.3934296   2.23177373e-05     -75.0829259      0.998097979      15.1959868
8.372                0.998105447      14.4824442   2.25491137e-05     -74.1548422   2.27170681e-05     -75.7657219      0.998105755      14.4961782
8.376                0.998113097      13.7847386   2.29687078e-05     -74.9144245   2.31231444e-05     -76.4463687      0.998113373      13.7985426
8.38                 0.998120588      13.0891757   2.33940637e-05     -75.6718933   2.35360949e-05     -77.1249236      0.998120831       13.103049
8.384                0.998127918      12.3957254   2.38253156e-05      -76.426995   2.39560513e-05     -77.8014426      0.998128128      12.4096675
8.388                0.998135085       11.704358    2.4262609e-05     -77.1795055   2.43831485e-05       -78.47598      0.998135263      11.7183683
8.392                0.998142089      11.0150445   2.47061002e-05     -77.9292296   2.48175246e-05     -79.1485887      0.998142236      11.0291223
8.396                 0.99814893      10.3277563   2.51559549e-05     -78.6759997    2.5259321e-05     -79.8193201      0.998149045      10.3419012
8.4                  0.998155607      9.64246549   2.56123477e-05     -79.4196747   2.57086826e-05      -80.488224      0.998155692      9.65667684
8.404                0.998162121      8.95914445    2.6075461e-05     -80.1601382   2.61657576e-05     -81.1553489      0.998162175       8.9734217
8.408                 0.99816847      8.27776616   2.65454846e-05     -80.8972969   2.66306981e-05     -81.8207418      0.998168495      8.29210877
8.412                0.998174657      7.59830406   2.70226145e-05     -81.6310787   2.71036594e-05     -82.4844483      0.998174653      7.61271149
8.416                0.998180681      6.92073205   2.75070527e-05     -82.3614311   2.75848009e-05     -83.1465125      0.998180648      6.93520375
8.42                 0.998186543      6.24502447   2.79990065e-05     -83.0883192   2.80742857e-05     -83.8069772      0.998186483      6.25955989
8.424                0.998192244      5.57115608    2.8498688e-05      -83.811724   2.85722807e-05     -84.4658838      0.998192157       5.5857547
8.428                0.998197786      4.89910207   2.90063136e-05     -84.5316404   2.90789569e-05     -85.1232724      0.998197672      4.91376335
8.432                0.998203169      4.22883804    2.9522104e-05      -85.248076   2.95944894e-05     -85.7791818      0.998203029      4.24356144
8.436                0.998208394      3.56033999   3.00462835e-05      -85.961049   3.01190576e-05     -86.4336493       0.99820823      3.57512498
8.44                 0.998213465      2.89358429   3.05790803e-05     -86.6705875   3.06528449e-05     -87.0867113      0.998213277      2.90843034
8.444                0.998218381       2.2285477   3.11207257e-05     -87.3767275   3.11960394e-05     -87.7384026       0.99821817      2.24345428
8.448                0.998223145      1.56520734   3.16714546e-05     -88.0795117   3.17488335e-05     -88.3887568      0.998222911      1.58017392
8.452                0.998227759      0.90354068    3.2231505e-05      -88.778989   3.23114242e-05     -89.0378066      0.998227504     0.918566731
8.456                0.998232224      0.24352554   3.28011183e-05     -89.4752128   3.28840134e-05     -89.6855832      0.998231949     0.258610528
8.46                 0.998236544    -0.414859925   3.33805391e-05     -90.1682405   3.34668075e-05     -90.3321168      0.998236249    -0.399716535
8.464                0.998240719     -1.07163724   3.39700153e-05     -90.8581326    3.4060018e-05     -90.9774364      0.998240405     -1.05643598
8.468                0.998244753      -1.7268276   3.45697982e-05     -91.5449519   3.46638616e-05       -91.62157      0.998244421     -1.71156901
8.472                0.998248648     -2.38045191   3.51801426e-05      -92.228763   3.52785599e-05     -92.2645443      0.998248299     -2.36513652
8.476                0.998252405     -3.03253076   3.58013069e-05     -92.9096316   3.59043399e-05     -92.9063852      0.998252041     -3.01715911
8.48                 0.998256029     -3.68308445   3.64335533e-05     -93.5876241   3.65414339e-05     -93.5471175      0.998255649     -3.66765708
8.484                 0.99825952       -4.332133   3.70771476e-05     -94.2628074     3.719008e-05     -94.1867649      0.998259126     -4.31665046
8.488                0.998262882     -4.97969615   3.77323598e-05     -94.9352481   3.78505217e-05     -94.8253502      0.998262475     -4.96415898
8.492                0.998266118     -5.62579338   3.83994643e-05     -95.6050125   3.85230084e-05     -95.4628952      0.998265698     -5.61020212
8.496                0.998269229     -6.27044389   3.90787395e-05     -96.2721664   3.92077955e-05     -96.0994209      0.998268798     -6.25479909
8.5                  0.998272219     -6.91366664   3.97704687e-05     -96.9367745   3.99051443e-05     -96.7349474      0.998271778     -6.89796886
8.504                0.998275091     -7.55548033   4.04749397e-05     -97.5989008   4.06153224e-05     -97.3694937       0.99827464     -7.53973012
8.508                0.998277847     -8.19590343   4.11924454e-05     -98.2586079   4.13386039e-05     -98.0030783      0.998277388     -8.18010135
8.512                 0.99828049     -8.83495418   4.19232839e-05     -98.9159573   4.20752693e-05     -98.6357185      0.998280023     -8.81910078
8.516                0.998283023     -9.47265056   4.26677587e-05      -99.571009   4.28256058e-05     -99.2674312      0.998282549     -9.45674641
8.52                 0.998285448     -10.1090104   4.34261787e-05     -100.223822   4.35899075e-05     -99.8982322      0.998284968      -10.093056
8.524                0.998287769     -10.7440511   4.41988588e-05     -100.874452   4.43684753e-05     -100.528137      0.998287283     -10.7280472
8.528                0.998289987     -11.3777902   4.49861199e-05     -101.522957   4.51616176e-05      -101.15716      0.998289498     -11.3617372
8.532                0.998292107     -12.0102448   4.57882892e-05      -102.16939   4.59696498e-05     -101.785314      0.998291614     -11.9941433
8.536                 0.99829413     -12.6414318   4.66057003e-05     -102.813803   4.67928951e-05     -102.412614      0.998293635     -12.6252824
8.54                  0.99829606      -13.271368   4.74386935e-05     -103.456247   4.76316844e-05     -103.039072      0.998295563     -13.2551712
8.544                  0.9982979     -13.9000698   4.82876162e-05     -104.096773   4.84863562e-05     -103.664699      0.998297401     -13.8838264
8.548                0.998299651     -14.5275538   4.91528231e-05     -104.735428   4.93572575e-05     -104.289507      0.998299151     -14.5112641
8.552                0.998301317      -15.153836   5.00346759e-05     -105.372258   5.02447432e-05     -104.913507      0.998300817     -15.1375008
8.556                  0.9983029     -15.7789326   5.09335446e-05      -106.00731   5.11491771e-05     -105.536709      0.998302402     -15.7625524
8.56                 0.998304403     -16.4028592   5.18498066e-05     -106.640626   5.20709314e-05     -106.159123      0.998303906     -16.3864346
8.564                0.998305829     -17.0256318   5.27838479e-05     -107.272249   5.30103874e-05     -106.780757      0.998305334     -17.0091633
8.568                0.998307181     -17.6472656   5.37360628e-05      -107.90222   5.39679354e-05     -107.401622      0.998306688      -17.630754
8.572                 0.99830846     -18.2677762   5.47068543e-05     -108.530578   5.49439752e-05     -108.021725      0.998307971     -18.2512219
8.576                 0.99830967     -18.8871787   5.56966345e-05     -109.157362   5.59389162e-05     -108.641074      0.998309184     -18.8705824
8.58                 0.998310813     -19.5054882   5.67058248e-05      -109.78261   5.69531777e-05     -109.259677      0.998310331     -19.4888504
8.584                0.998311891     -20.1227196   5.77348559e-05     -110.406357   5.79871889e-05     -109.877541      0.998311413      -20.106041
8.588                0.998312907     -20.7388877   5.87841688e-05     -111.028638   5.90413896e-05     -110.494673      0.998312434     -20.7221688
8.592                0.998313863      -21.354007   5.98542143e-05     -111.649488   6.01162302e-05     -111.111079      0.998313395     -21.3372485
8.596                0.998314761     -21.9680922   6.09454537e-05     -112.268938   6.12121718e-05     -111.726766      0.998314299     -21.9512946
8.6                  0.998315605     -22.5811576   6.20583591e-05     -112.887022   6.23296869e-05      -112.34174      0.998315148     -22.5643215
8.604                0.998316395     -23.1932174   6.31934137e-05     -113.503768   6.34692595e-05     -112.956006      0.998315944     -23.1763435
8.608                0.998317135     -23.8042858   6.43511121e-05     -114.119209   6.46313852e-05      -113.56957       0.99831669     -23.7873746
8.612                0.998317826     -24.4143768   6.55319605e-05     -114.733372   6.58165717e-05     -114.182437      0.998317387     -24.3974289
8.616                0.998318471     -25.0235043   6.67364772e-05     -115.346285   6.70253392e-05     -114.794612      0.998318037     -25.0065203
8.62                 0.998319071      -25.631682   6.79651929e-05     -115.957977   6.82582206e-05     -115.406099      0.998318643     -25.6146625
8.624                0.998319628     -26.2389236   6.92186512e-05     -116.568474   6.95157617e-05     -116.016905      0.998319206     -26.2218692
8.628                0.998320145     -26.8452427   7.04974087e-05     -117.177802    7.0798522e-05     -116.627033      0.998319729     -26.8281541
8.632                0.998320623     -27.4506528   7.18020355e-05     -117.785985   7.21070744e-05     -117.236487      0.998320213     -27.4335304
8.636                0.998321064     -28.0551672   7.31331155e-05     -118.393049   7.34420062e-05     -117.845272      0.998320659     -28.0380117
8.64                  0.99832147     -28.6587992    7.4491247e-05     -118.999017    7.4803919e-05     -118.453392      0.998321071     -28.6416112
8.644                0.998321843     -29.2615619   7.58770431e-05     -119.603913   7.61934294e-05     -119.060851      0.998321448      -29.244342
8.648                0.998322183     -29.8634686   7.72911318e-05     -120.207759   7.76111694e-05     -119.667653      0.998321793     -29.8462173
8.652                0.998322494      -30.464532   7.87341566e-05     -120.810578   7.90577864e-05     -120.273803      0.998322108       -30.44725
8.656                0.998322776     -31.0647652   8.02067772e-05      -121.41239   8.05339441e-05     -120.879303      0.998322394     -31.0474531
8.66                  0.99832303     -31.6641811   8.17096696e-05     -122.013218   8.20403229e-05     -121.484159      0.998322651     -31.6468393
8.664                0.998323259     -32.2627923   8.32435266e-05     -122.613081   8.35776199e-05     -122.088373      0.998322883     -32.2454214
8.668                0.998323463     -32.8606115   8.48090586e-05     -123.212001   8.51465501e-05      -122.69195       0.99832309     -32.8432122
8.672                0.998323645     -33.4576513   8.64069938e-05     -123.809995    8.6747846e-05     -123.294894      0.998323272     -33.4402241
8.676                0.998323804     -34.0539243   8.80380787e-05     -124.407085    8.8382259e-05     -123.897208      0.998323433     -34.0364698
8.68                 0.998323943     -34.6494429   8.97030787e-05     -125.003289   9.00505591e-05     -124.498897      0.998323572     -34.6319617
8.684                0.998324062     -35.2442196   9.14027789e-05     -125.598625   9.17535362e-05     -125.099964       0.99832369     -35.2267122
8.688                0.998324163     -35.8382666   9.31379841e-05     -126.193112   9.34919999e-05     -125.700414       0.99832379     -35.8207335
8.692                0.998324246     -36.4315963   9.49095199e-05     -126.786767   9.52667806e-05      -126.30025      0.998323871     -36.4140381
8.696                0.998324313     -37.0242208   9.67182329e-05     -127.379609   9.70787298e-05     -126.899478      0.998323934     -37.0066381
8.7                  0.998324365     -37.6161524   9.85649918e-05     -127.971654    9.8928721e-05       -127.4981      0.998323982     -37.5985456
8.704                0.998324401     -38.2074031   0.000100450687     -128.562919    0.00010081765     -128.096122      0.998324013     -38.1897728
8.708                0.998324424     -38.7979849   0.000102376234     -129.153421   0.000102746435     -128.693548       0.99832403     -38.7803317
8.712                0.998324434       -39.38791   0.000104342569     -129.743177   0.000104716019     -129.290382      0.998324032     -39.3702343
8.716                0.998324431     -39.9771903   0.000106350654     -130.332203    0.00010672737      -129.88663      0.998324021     -39.9594927
8.72                 0.998324417     -40.5658376   0.000108401478     -130.920514   0.000108781478     -130.482295      0.998323997     -40.5481186
8.724                0.998324391     -41.1538639   0.000110496053     -131.508127   0.000110879362     -131.077384      0.998323961      -41.136124
8.728                0.998324355      -41.741281   0.000112635419     -132.095056   0.000113022066       -131.6719      0.998323913     -41.7235207
8.732                0.998324309     -42.3281007   0.000114820643     -132.681319   0.000115210661     -132.265849      0.998323853     -42.3103205
8.736                0.998324253     -42.9143349   0.000117052821     -133.266929   0.000117446249     -132.859236      0.998323783     -42.8965352
8.74                 0.998324188     -43.4999951   0.000119333078     -133.851901   0.000119729957     -133.452068      0.998323702     -43.4821764
8.744                0.998324114     -44.0850932   0.000121662567     -134.436251   0.000122062943     -134.044348       0.99832361      -44.067256
8.748                0.998324031     -44.6696408   0.000124042475     -135.019994   0.000124446398     -134.636084      0.998323508     -44.6517856
8.752                 0.99832394     -45.2536496   0.000126474019     -135.603143   0.000126881542     -135.227281      0.998323397     -45.2357768
8.756                 0.99832384     -45.8371312   0.000128958447     -136.185714   0.000129369629     -135.817945      0.998323275     -45.8192413
8.76                 0.998323733     -46.4200972   0.000131497044      -136.76772   0.000131911945     -136.408083      0.998323145     -46.4021906
8.764                0.998323618     -47.0025593   0.000134091127     -137.349176   0.000134509811       -136.9977      0.998323004     -46.9846365
8.768                0.998323494      -47.584529   0.000136742051     -137.930096   0.000137164584     -137.586803      0.998322855     -47.5665903
8.772                0.998323363     -48.1660178   0.000139451206     -138.510494   0.000139877659       -138.1754      0.998322695     -48.1480637
8.776                0.998323224     -48.7470374   0.000142220019     -139.090385   0.000142650465     -138.763497      0.998322527     -48.7290683
8.78                 0.998323077     -49.3275993    0.00014504996     -139.669781   0.000145484474     -139.351101      0.998322348     -49.3096156